ITEM: TIMESTEP
0
ITEM: NUMBER OF ATOMS
784
ITEM: BOX BOUNDS pp pp pp
0.0000000000000000e+00 2.8000000000000000e+01
0.0000000000000000e+00 7.0000000000000000e+00
-1.0000000000000000e+00 1.0000000000000000e+00
ITEM: ATOMS x y vx vy 
8.2313 1.4873 0.125176 -0.115051 
9.2246 5.034 -0.0368707 -0.242744 
8.4477 4.3504 0.165641 0.112871 
10.963 3.0983 0.189439 -0.217391 
6.5799 3.7867 0.0808378 -0.0644653 
10.4161 2.6967 -0.218082 0.109538 
3.4898 6.2784 0.0844594 -0.183235 
13.5655 4.0322 -0.0371108 -0.0264991 
9.2755 2.1043 -0.0943082 0.132918 
13.3063 2.3662 -0.0152561 0.0418369 
4.2393 5.2123 -0.277432 0.258337 
5.876 0.5361 -0.216698 -0.181459 
9.7109 5.5254 0.0317264 -0.0839389 
5.1577 0.5222 -0.106428 -0.211682 
8.5788 1.0682 -0.0561563 -0.0453941 
0.9279 4.7444 -0.203339 -0.325592 
13.7197 1.6208 -0.134272 0.129623 
12.7799 0.8157 0.136738 0.21421 
11.416 4.9525 0.303951 0.257256 
12.1594 5.527 -0.217222 0.15261 
4.5615 3.5666 0.0660432 -0.197337 
12.3925 1.987 0.0836129 -0.226648 
7.742 1.1216 0.00281465 0.0182235 
13.7496 4.2372 0.350227 0.0218094 
1.9249 2.3657 0.370036 0.214005 
0.9249 6.1315 -0.178772 -0.0460402 
5.775 0.7867 0.00342869 -0.0419531 
9.2944 6.4888 -0.0329239 0.173859 
12.3933 6.7396 0.110171 -0.129393 
12.4874 5.5054 0.0424549 0.119978 
3.4758 4.8295 -0.0437598 0.248784 
2.6806 2.1347 0.0174049 0.157528 
7.4358 6.453 0.16881 0.125233 
13.7415 5.7004 -0.0480975 0.064134 
8.1799 2.7709 0.129663 -0.170398 
9.69 3.5654 -0.20392 -0.0213408 
5.719 4.4142 0.0654689 -0.0211748 
13.264 6.7174 -0.104509 -0.141782 
6.9718 0.7833 -0.101161 -0.177354 
12.8598 4.9026 -0.0470026 -0.00413734 
9.1967 5.6143 0.19724 0.0484127 
8.6635 3.4042 0.12667 -0.0503845 
4.7927 4.8386 -0.0691638 0.026461 
1.7393 6.7219 0.0817997 -0.146166 
3.2968 2.417 0.0862297 0.0726468 
5.9028 4.5033 0.22211 -0.0813848 
6.535 5.4604 0.052985 0.122989 
12.5843 2.9072 0.0663614 0.1863 
8.6584 5.7005 -0.125298 -0.098102 
6.3703 2.1662 0.0629165 -0.00556149 
9.4511 1.0779 -0.130409 0.0768564 
6.9181 3.7121 -0.0609393 0.17274 
4.8533 3.1699 -0.188827 -0.0284397 
11.3762 3.1186 -0.109696 -0.016928 
8.3566 1.9609 0.130559 0.0875039 
4.7007 6.0971 -0.176606 -0.42034 
7.0767 1.462 0.074486 -0.15672 
4.7729 2.021 0.10948 0.075723 
12.8853 5.8103 -0.255536 0.0386053 
13.9643 5.1308 -0.314804 -0.153667 
3.2532 1.1952 -0.0622952 0.11342 
12.1597 3.65 0.229641 0.0525607 
10.6063 3.3012 0.0633978 0.0136219 
11.4229 2.119 -0.156229 0.146786 
6.223 0.9563 -0.0840451 -0.103555 
11.0053 1.3813 -0.0546104 -0.0926401 
1.1607 1.4274 0.0499624 -0.0704378 
7.2009 2.0966 0.07274 0.0656329 
9.9289 2.1064 0.0511163 -0.143198 
6.9637 6.1562 0.10697 0.207063 
11.7731 6.1703 -0.338524 0.0752912 
8.9762 1.6245 0.0844103 0.115455 
6.9831 5.3615 -0.152518 -0.0626354 
11.4723 4.1755 0.0262334 -0.0582069 
4.0316 2.9407 -0.0353812 -0.138165 
7.0064 6.5974 0.0617463 -0.231639 
10.8133 2.3059 -0.100761 0.0422006 
10.8602 3.7472 0.137684 0.134762 
8.8309 5.4257 0.237917 0.0133704 
4.8461 5.4763 -0.0398023 0.078519 
2.0036 2.0827 -0.00695815 0.0461269 
11.7798 2.0852 0.139757 0.263533 
8.8809 5.0856 -0.0248794 -0.0021821 
10.3205 1.3591 0.147159 0.0777361 
0.7467 2.9298 -0.0860791 0.186538 
3.9773 2.1714 -0.0062421 -0.212532 
13.67 2.5319 0.181658 0.194376 
6.7808 3.9611 -0.197588 0.00811826 
1.4231 3.4805 0.00103055 0.0203187 
2.4343 1.1545 0.00832716 0.172793 
5.9154 3.5706 -0.123915 0.191513 
0.5271 1.6575 0.215224 -0.124753 
12.7013 1.3401 -0.118287 -0.116139 
4.2168 6.5123 0.327087 0.154039 
11.19 3.5245 0.00294176 0.0864284 
10.5478 5.0062 -0.0184755 0.116853 
8.0226 2.4793 0.124831 0.0187229 
4.2858 3.8875 -0.17845 -0.0359354 
2.3914 5.9569 0.146194 0.0516812 
6.6713 0.6523 0.117221 0.152944 
12.6742 5.3236 0.209868 0.012159 
9.8374 6.0376 -0.140057 -0.103097 
6.2045 6.2297 -0.028609 0.242874 
2.6138 4.3905 0.0684131 0.179076 
2.6908 1.1507 0.295996 0.19253 
5.0376 6.0505 0.202037 0.0670183 
5.1551 1.8774 -0.13555 0.448083 
4.5718 5.6971 0.0664399 -0.0620406 
4.1335 5.639 0.0195507 -0.0886171 
3.5842 0.9909 -0.0896346 -0.132436 
4.5353 4.8345 0.112201 0.167871 
11.9004 2.943 0.1655 -0.0122267 
5.1846 6.2292 -0.196187 0.0176628 
3.0484 6.3826 -0.14532 -0.0421093 
7.7219 3.6853 -0.10059 0.0429409 
13.7831 6.0374 0.194342 -0.173105 
1.3479 3.9479 -0.0611391 0.126254 
8.9805 2.7887 -0.136904 0.021051 
1.7361 2.9176 0.000408601 0.204634 
9.7999 4.3908 -0.183669 0.177755 
11.9421 1.148 -0.366208 0.190902 
6.5886 5.8 0.282382 0.18752 
12.5545 3.2926 -0.101101 -0.0562748 
7.4578 2.5803 -0.254008 0.308298 
8.0932 3.8683 -0.147961 -0.111548 
1.8189 6.0055 -0.0121685 0.0454369 
13.3495 0.8913 -0.0719717 0.2187 
5.275 0.751 0.101275 0.0813453 
3.6693 2.4078 0.00415696 0.146009 
1.9112 5.4294 0.0667645 -0.0595603 
13.1703 4.1734 0.0165433 -0.138382 
7.6477 4.2103 0.0979218 -0.00191752 
5.3726 6.1334 0.0250246 0.110844 
4.5237 2.5809 0.164166 0.240013 
6.9162 1.6951 0.0940837 0.117445 
7.3865 0.6783 0.0903607 -0.139613 
7.6034 4.5085 -0.13814 -0.0396491 
5.8405 2.8625 -0.0569741 -0.0586887 
5.3343 2.5653 0.300375 -0.0221074 
8.1973 5.8498 -0.017012 0.00830065 
4.8983 3.9344 0.0737453 0.113435 
1.3427 6.5928 0.171356 0.0761654 
13.4163 3.0398 -0.0226023 -0.00372382 
11.7843 3.783 0.26094 0.174767 
3.0272 2.4299 0.0291438 -0.0803007 
4.1034 1.4218 -0.153989 -0.0342433 
11.4349 6.6188 -0.0865161 -0.307572 
2.6175 3.6006 -0.165921 -0.1396 
5.6978 2.5846 -0.239976 -0.211716 
5.4551 6.7312 -0.110842 0.0581246 
13.7277 6.5397 -0.115006 0.0369444 
12.0629 1.8373 -0.0282888 -0.219595 
3.9233 5.808 0.0222567 -0.39996 
10.4851 6.6758 -0.0735494 -0.000219912 
3.4223 1.6114 -0.059249 0.337751 
13.9414 1.5868 -0.100463 -0.0801008 
2.1228 1.8707 0.0924986 -0.259785 
10.5758 3.6643 0.216126 -0.180204 
10.4176 6.0504 -0.0218205 0.273775 
2.5072 5.2694 0.0519068 -0.0196439 
2.8369 0.6954 0.128196 0.187963 
6.0005 2.4123 -0.177679 -0.00770016 
10.9237 1.1682 0.177301 0.262934 
3.8539 1.3789 0.0575101 -0.465249 
6.1032 2.1283 0.0339303 0.196508 
10.882 6.0863 -0.0574243 0.200066 
7.2692 2.7429 0.205207 0.0498584 
5.4928 3.0143 -0.0530253 0.0728046 
11.8358 5.4092 0.00353983 0.025519 
2.5642 0.6998 0.0102618 0.0934776 
0.8455 3.8222 0.0924265 0.0416854 
7.6247 2.4578 0.0446762 -0.27061 
1.7847 1.9648 0.0332344 -0.0506869 
12.1648 0.7347 0.226101 -0.297919 
6.7188 4.8607 0.312412 -0.187699 
1.9839 3.4448 -0.0185994 -0.00470061 
10.5846 6.196 0.060453 -0.196799 
8.9768 3.3605 0.00857325 0.0501369 
0.9046 5.0019 0.168792 0.223045 
11.6516 6.679 0.255828 -0.0757935 
1.3937 4.9905 -0.167401 -0.254965 
2.2049 6.4597 -0.00507925 -0.0357498 
1.987 6.691 0.204172 -0.0334157 
7.715 1.6789 0.102152 0.16834 
11.2305 5.8813 0.0375207 0.0613761 
3.5872 3.8098 0.133279 0.0896401 
4.2872 5.8798 0.106338 0.200636 
1.4356 1.1479 -0.0755847 0.00534852 
6.3369 2.7491 -0.153262 0.0454631 
7.6473 6.0788 0.0891372 0.149388 
11.7102 1.1347 -0.0138163 0.240614 
9.4205 0.8762 0.0704844 -0.0633878 
11.1045 6.24 -0.152977 0.0743423 
0.9397 6.7889 -0.154082 0.0034474 
10.0832 2.3963 0.181672 -0.026755 
1.3042 2.71 0.0365754 -0.0385518 
10.9304 5.8405 -0.134677 0.0405848 
8.8654 6.492 -0.0782812 0.130722 
10.0865 4.4727 0.107316 0.0783689 
12.9302 4.4345 0.0991515 -0.0658709 
9.5731 4.2773 -0.184719 0.131352 
7.7631 2.9683 0.107031 -0.156401 
12.6534 1.8553 0.183748 -0.0324186 
0.5062 4.4339 0.112439 -0.0800772 
2.6152 3.9376 -0.147846 -0.00856156 
4.7671 4.5906 -0.00728685 -0.0388393 
13.1038 2.1563 -0.342623 0.106126 
12.4884 4.2448 0.241215 -0.164366 
4.4392 5.4949 0.131272 0.00438439 
1.5521 1.7721 -0.028679 0.104988 
3.079 4.3212 -0.199535 0.170769 
12.5332 5.1542 0.163216 0.053557 
6.4989 3.293 -0.115565 0.0365441 
9.763 3.0115 0.0355979 -0.12713 
4.8738 5.0973 -0.170069 -0.151004 
1.8973 3.2589 0.259228 -0.0806703 
4.0069 6.5393 0.100806 0.088918 
5.3474 3.8364 0.301835 -0.0656139 
10.4727 2.4987 -0.0504484 -0.0933275 
8.5129 6.2308 0.147098 0.0477771 
10.9924 2.0562 0.202198 -0.0800023 
1.5762 1.3444 -0.0336421 0.0820824 
1.017 3.2142 0.0235838 -0.0666771 
11.5707 6.3993 0.0334892 -0.0870282 
2.7886 1.4322 0.155481 0.0374439 
4.2208 2.4241 -0.143523 -0.151331 
8.4161 2.6712 0.123108 0.0406619 
9.6063 1.8281 -0.0701181 0.104517 
12.1379 4.3682 -0.0989093 0.133448 
2.9128 1.7216 -0.0993906 0.10465 
12.8382 3.9209 0.196016 0.141582 
2.5904 4.1729 0.0159815 -0.0842223 
2.7883 4.9336 -0.0834765 -0.0379751 
12.0212 1.6237 -0.134672 0.197481 
9.4977 2.8642 -0.294339 0.0587022 
4.2286 0.9256 -0.0310934 -0.265024 
13.42 5.6752 0.167524 -0.0607089 
2.5572 1.6752 0.0597524 0.143974 
13.4365 6.5596 -0.0397241 0.0655539 
3.2729 3.3453 0.0197101 0.498299 
9.5494 3.2044 -0.0190364 0.086357 
7.4544 4.3202 0.0119907 -0.0671835 
8.0612 1.3466 0.170496 -0.110535 
10.1103 4.058 -0.031959 -0.0943546 
13.8024 2.1218 0.0284369 -0.0817083 
2.2412 4.1117 0.00182318 -0.0321235 
8.489 5.4575 0.0776566 0.0474945 
1.3797 4.1782 0.109193 -0.0842255 
6.6028 6.7492 0.356933 0.180879 
10.1953 6.4505 -0.0555599 -0.0427282 
1.0369 6.4329 0.335848 -0.158844 
9.7331 1.0672 0.0861138 -0.228514 
13.7493 4.719 0.106622 0.21988 
10.2854 3.8809 -0.144307 -0.0340407 
1.7246 0.9047 -0.0983034 0.148834 
1.0783 5.5548 -0.0673323 -0.0509452 
1.2079 2.9307 0.279505 0.153744 
11.7068 1.5551 -0.0022546 0.144038 
6.2161 2.9397 0.0966253 0.106777 
9.8243 6.5859 -0.0682601 0.0216008 
5.4849 4.265 0.099981 -0.128701 
10.9581 2.7929 -0.12836 -0.151781 
13.3822 1.3308 0.0279263 -0.0356962 
10.7446 0.9255 -0.125061 -0.0515977 
5.9948 1.3327 0.0117074 0.011425 
6.4145 0.6138 -0.0634509 -0.130352 
12.495 3.7282 0.146343 -0.00767785 
12.989 1.654 -0.198331 0.0174899 
8.8823 0.5572 0.208211 0.240047 
7.5863 4.9204 -0.0145108 0.0903518 
6.123 5.3519 -0.311658 -0.0286857 
4.3135 2.9365 0.0922589 0.133743 
6.5808 2.798 -0.0351473 -0.0204494 
4.8733 1.0989 -0.018285 0.00350576 
7.2187 3.7415 -0.0171087 0.16667 
1.2905 5.7652 -0.177167 -0.0789991 
3.2628 5.9054 0.188203 -0.0860832 
1.9082 5.7675 -0.0288766 0.0914886 
11.2267 1.0483 0.126424 -0.0119637 
13.3483 1.9529 -0.00759951 -0.0705418 
6.7439 3.2181 0.0695412 -0.0978948 
6.9668 0.5472 0.106274 -0.227126 
7.5036 3.7126 -0.0358776 -0.063942 
6.5073 1.2403 0.0835267 0.0528915 
10.5882 4.5591 0.0535242 -0.0344865 
13.9677 6.3679 0.124642 0.238123 
6.1751 1.506 0.105103 -0.138345 
1.0207 5.8242 0.0569869 -0.00795757 
7.1624 6.3296 0.106167 0.0980001 
6.828 1.0853 0.0133232 -0.120349 
1.5118 4.632 -0.0116938 0.100075 
12.1781 6.0901 0.0595951 -0.115616 
4.0751 4.3541 0.132884 0.255939 
9.0485 5.9071 -0.0322353 -0.159793 
0.7059 5.4341 -0.205933 0.130636 
3.5895 4.5647 0.228739 0.104819 
1.3998 2.231 0.0505736 0.00984237 
12.3838 2.9205 0.130527 -0.0368609 
1.6613 4.7833 0.00793758 -0.148021 
3.7045 2.1893 0.0437535 -0.193517 
3.5813 5.9643 -0.12248 0.182899 
11.5959 5.8791 -0.0394174 -0.149139 
0.6624 0.9767 -0.0440163 0.0776883 
9.0807 3.5952 -0.0742885 0.0235597 
10.2418 1.8245 -0.33252 0.116797 
5.1049 5.7131 0.0826686 -0.044248 
8.1493 1.933 -0.0961716 -0.040662 
11.8572 4.1281 0.129216 -0.198362 
9.9743 3.0684 -0.201807 -0.226987 
13.023 0.9941 -0.201484 0.0216166 
6.8934 6.7987 -0.025107 -0.155579 
6.8178 2.8247 -0.073946 -0.0320949 
11.2451 0.5987 -0.0277017 0.176662 
8.976 2.1162 0.0844527 0.0830547 
13.227 3.2878 -0.0901306 0.00311278 
10.6503 4.1617 0.00697817 0.00283756 
12.4346 4.7806 -0.276187 -0.014319 
7.7876 3.3593 0.0434649 0.134238 
7.5831 3.9803 0.0430462 0.238083 
11.0567 5.6331 0.0175882 -0.0436737 
13.5926 1.8025 0.0795054 0.0532518 
9.7101 2.4118 0.068275 -0.0520149 
1.2016 0.9905 -0.29156 -0.0609497 
11.1668 1.6549 -0.100574 -0.162195 
9.1277 1.9354 0.0586216 -0.0464257 
8.4943 3.0959 -0.113943 -0.126316 
12.1505 2.7521 0.0715809 -0.157231 
0.7433 2.5468 -0.120884 0.0638873 
7.8998 3.5641 0.0790773 -0.1943 
10.1963 3.1574 0.0460969 -0.110481 
3.3564 3.8569 -0.0178954 -0.177565 
11.2909 6.79 -0.0898714 0.155236 
9.9293 5.1253 -0.135727 0.074155 
6.6742 0.8751 -0.189059 -0.0701662 
6.0098 6.0967 0.0629787 0.225033 
9.2844 4.6917 -0.0636004 0.0310578 
6.6338 1.5485 -0.000276764 0.22011 
1.3585 2.4834 -0.233885 -0.0272436 
4.5585 6.4121 0.12657 0.130749 
7.1686 5.1796 -0.122737 0.212854 
3.2764 2.9941 0.121652 -0.015919 
7.2414 4.4249 0.0239985 0.0254737 
13.0311 2.4509 -0.0234066 -0.114377 
11.6543 0.5928 0.117285 0.069881 
2.3354 4.7751 -0.130312 0.01643 
9.836 4.7825 -0.0686627 -0.168114 
13.8821 3.2313 -0.00817591 -0.138268 
12.1029 2.9968 -0.242992 -0.039037 
11.5628 2.6139 -0.264724 0.0843486 
3.6849 6.4777 0.112468 0.0135972 
2.478 2.8843 -0.270322 -0.337074 
6.2319 6.4396 0.153351 -0.136688 
0.6597 3.1792 0.238015 0.267492 
8.7741 2.9688 -0.0177343 -0.0958497 
4.517 1.3354 -0.016402 0.174875 
3.8079 1.1043 -0.0940124 -0.0845306 
5.6972 5.2728 -0.0418906 -0.119829 
13.152 3.9117 -0.141644 0.0172065 
13.1078 2.6829 -0.0159937 -0.228416 
10.2783 5.7317 -0.195902 -0.241735 
4.3141 2.728 -0.156242 -0.326733 
13.9555 0.5781 -0.0986774 0.0491006 
9.0742 1.3677 -0.0181603 0.174882 
2.364 5.6786 -0.0570667 0.0460472 
2.9113 4.026 -0.122909 0.286428 
4.0749 6.0798 0.0267584 0.0155198 
8.5845 3.8046 -0.204507 -0.207033 
6.7811 2.5125 0.150947 0.00796501 
10.0141 0.57 0.0816652 0.240025 
10.0039 1.3274 0.0761516 0.0233758 
1.8648 2.681 0.0413778 -0.123424 
3.5877 2.0073 -0.192091 -0.0719008 
10.8824 6.3648 0.117708 -0.0933697 
6.2543 4.1596 0.204524 -0.286288 
2.0246 1.341 0.256715 -0.00458557 
7.9222 6.6688 0.160459 0.263805 
7.9577 4.8715 0.130592 -0.0128872 
4.8159 2.4902 -0.0638914 -0.0578105 
3.2873 0.6636 -0.138617 0.04916 
5.2627 5.1873 -0.260832 0.118692 
8.8995 6.7553 0.245883 0.063673 
7.5446 2.1699 0.199641 0.0120958 
3.0118 2.9367 -0.188841 0.0177444 
5.1285 2.1623 -0.0448662 -0.132949 
2.2267 1.6075 0.202557 0.0162171 
11.308 4.5455 -0.0178308 0.0750825 
6.1841 3.1623 0.134799 -0.112009 
11.5362 3.7133 -0.0717604 -0.142298 
15.2967 5.0775 0.0841466 -0.122757 
22.2047 5.7227 -0.1178 -0.0584097 
27.2168 4.9475 -0.122212 -0.121996 
25.413 1.0772 -0.0207917 0.0484429 
14.0258 1.9317 0.00409969 -0.00724156 
19.6381 5.239 0.243922 0.0302069 
24.846 5.9178 0.267501 -0.102422 
27.2477 4.122 -0.0235188 0.00476889 
17.3562 4.2383 -0.100002 0.0870765 
16.8927 5.4408 -0.0822993 -0.0187039 
26.1544 4.2782 0.138553 0.0538523 
24.0039 3.4905 0.161209 -0.109097 
14.2297 3.227 0.0188239 0.0183999 
23.7586 3.2724 -0.00972368 0.184874 
22.8863 2.672 0.0351832 -0.12835 
25.2019 0.8114 0.243932 0.0804933 
23.7161 3.8359 -0.215133 -0.0932054 
25.97 2.9403 0.195346 -0.114014 
22.9019 0.6935 0.101661 0.0831878 
19.2008 4.1495 0.00891977 -0.274986 
27.4787 4.0325 0.0735481 -0.067999 
22.2577 6.4675 0.0143918 -0.0638017 
20.1177 1.8436 0.151547 0.335583 
18.5992 1.2319 0.0313943 -0.180081 
24.6259 5.4293 0.0636803 0.225024 
16.162 4.6411 -0.0190685 -0.376463 
15.6781 5.9298 0.135167 -0.0719472 
19.7075 2.5129 -0.0699433 0.125833 
16.8804 3.2867 -0.150003 0.00294522 
26.1284 1.0932 0.0843284 -0.268965 
20.4496 3.3675 0.0834189 -0.111384 
18.6897 0.5947 -0.0715672 0.0518435 
14.8371 3.0272 0.0545206 0.315367 
24.6042 5.9505 0.225746 -0.105399 
23.5895 6.5683 0.0151405 0.145721 
24.2064 4.7835 0.073193 0.0516557 
22.7128 6.5796 -0.0744063 -0.191584 
27.3019 1.0766 -0.0865118 -0.167264 
17.3408 3.3784 -0.0806512 0.265641 
22.2544 0.6429 -0.0126722 0.0938675 
20.0086 4.9823 -0.0493649 -0.00317395 
21.917 2.8836 0.145473 0.0372854 
25.1434 2.4238 0.0657945 0.0854518 
26.171 2.4856 -0.189597 0.261799 
23.3726 4.3699 -0.0566197 -0.0245875 
19.603 1.0886 -0.12361 0.0762153 
22.5537 6.7864 -0.0328463 0.148131 
15.4177 3.831 0.0734247 0.097587 
25.1951 5.6307 -0.108568 -0.079018 
21.9642 4.3007 0.0249486 0.0737118 
24.7144 0.682 0.147063 0.0583496 
15.1133 1.0718 -0.242805 -0.120089 
25.6451 3.9119 -0.0125043 -0.0694307 
25.3764 4.45 -0.129641 0.16516 
17.8099 2.2236 -0.0270138 0.0814714 
22.665 1.6212 0.0234428 -0.0110576 
17.6806 0.8978 0.0392742 0.0599631 
20.6942 5.1066 -0.319861 0.0201136 
19.3536 3.3228 0.0819021 -0.0757567 
25.5047 1.5275 0.0895847 0.0803696 
15.1913 2.5683 -0.0961993 0.163957 
14.8479 3.6917 -0.304035 0.00140169 
21.4931 0.5322 -0.00187093 -0.0503926 
14.5722 0.8361 0.152694 0.00576877 
17.5316 1.7335 -0.000114947 -0.00476243 
14.6419 3.6694 -0.0803287 0.0282667 
24.8937 4.8037 -0.0392541 -0.0320701 
23.4827 1.4956 0.0324964 0.0205069 
20.3526 6.3435 0.227805 -0.00975659 
18.983 6.6925 -0.0187908 -0.10297 
18.3925 4.7591 -0.00191803 0.156465 
16.3643 3.815 -0.30322 0.0479536 
15.5812 0.7492 -0.035998 -0.0279842 
24.5928 6.4417 0.274293 0.00560218 
24.5648 5.6376 0.129491 -0.0682199 
24.6871 2.3907 -0.0726239 0.145523 
24.6703 1.9055 0.0167058 0.162136 
24.2773 5.0418 -0.0908786 -0.203282 
20.9561 6.3821 -0.17762 -0.0404151 
22.6185 5.856 0.0190219 -0.205718 
18.8211 2.1388 -0.0291296 -0.0184867 
27.4865 6.4526 0.170116 0.0755069 
23.6884 2.6216 0.122095 -0.0175191 
20.8138 2.7884 0.00372305 0.0300961 
19.6956 6.0574 0.0885062 -0.111484 
22.1784 1.0527 -0.0728089 -0.117519 
22.3129 1.7015 -0.0567831 -0.152958 
16.2253 0.9687 0.0476342 -0.300793 
19.2501 1.2088 0.11517 0.193098 
20.1388 4.5198 0.152226 -0.174938 
24.0776 2.3398 0.268919 -0.0902842 
22.4327 0.5292 -0.0954174 -0.10124 
20.4715 3.0346 0.022185 -0.149077 
21.319 3.708 -0.052372 0.0296373 
21.2317 3.3481 0.0651602 0.0706636 
17.8446 3.1351 -0.139009 -0.0295446 
26.6819 4.4861 0.0240775 -0.162175 
22.6767 4.8099 0.0552771 -0.113334 
15.2029 1.5532 -0.0208545 -0.129257 
21.6417 0.8066 0.221826 -0.0222555 
15.676 2.62 -0.157856 -0.102916 
26.7393 2.1494 0.132376 -0.0150494 
24.7421 3.7247 0.265299 0.0459662 
14.2701 4.5528 0.230674 -0.107595 
17.1445 1.1491 0.0799641 -0.214753 
20.7451 6.1646 0.227748 0.0322569 
23.1896 2.8452 -0.0956164 -0.0547413 
23.2552 2.6385 -0.0184765 -0.302857 
27.6509 1.9489 -0.222613 0.0489734 
16.2338 1.6168 -0.0537635 -0.164297 
19.6705 2.7294 -0.100545 -0.262614 
17.804 3.6412 0.23092 0.0270843 
16.8567 5.1644 0.016821 -0.110933 
21.2455 1.2974 -0.263219 -0.0893041 
27.3443 3.5745 0.0995663 0.0959672 
19.58 6.5887 -0.0999617 -0.00271642 
16.8794 0.8993 0.0486021 -0.391654 
17.9248 6.0825 -0.272921 0.0962356 
20.6854 5.7283 -0.218259 -0.0757286 
20.1851 6.7397 0.216928 -0.105924 
16.1526 6.662 -0.0782352 -0.0225929 
23.1082 0.5704 -0.176123 0.130342 
24.1067 3.2032 -0.0275657 -0.00396409 
27.602 1.2501 -0.149604 -0.0657575 
25.8784 4.1207 0.233026 -0.112794 
25.5087 6.2247 0.00880484 -0.173074 
26.9309 5.9098 -0.0765066 0.182872 
18.4931 4.4515 0.0277057 -0.359761 
16.2271 5.2635 -0.177041 0.170458 
20.2019 3.2089 -0.201638 0.146964 
19.6052 5.0031 -0.196105 -0.179703 
24.3972 3.3735 0.137895 0.218508 
15.6325 3.3388 -0.0815388 0.19061 
23.1799 5.7363 -0.0869729 0.386592 
19.9971 0.871 0.139104 0.166075 
24.6947 6.179 0.0778183 0.133636 
18.5689 5.1168 -0.0260868 0.0056986 
24.5106 0.696 -0.136097 0.220565 
17.8902 5.4934 0.175998 -0.0233431 
18.4611 4.1156 -0.0496812 0.222104 
16.2406 4.9818 0.0706419 -0.133741 
23.5877 1.0294 -0.147343 -0.203913 
27.6659 5.1705 0.0386723 0.0615114 
25.8147 1.9354 0.0568138 -0.097108 
21.5173 1.991 -0.0956284 -0.0939185 
17.1645 6.0511 -0.325261 -0.0588902 
19.769 4.0783 0.426153 0.257522 
15.1774 1.8887 -0.117123 0.222428 
18.4298 2.9483 0.11214 -0.0732365 
21.1174 5.7663 0.117682 -0.118657 
17.5579 2.8203 -0.120351 0.0488251 
24.2483 2.5246 -0.403845 0.0381205 
20.9765 1.919 -0.0677146 0.00993968 
27.2092 5.536 -0.0779349 -0.273806 
26.0367 0.8589 0.101525 -0.0511593 
23.1081 4.2219 -0.0851816 0.164413 
25.0641 4.068 0.0929245 0.0550335 
20.944 0.9905 0.0954157 -0.101232 
14.0274 1.3712 -0.0362572 0.0455688 
23.5028 0.5699 0.0418877 -0.0407543 
22.1477 3.0723 0.0593326 0.0731616 
23.5076 6.3679 -0.165649 -0.0499539 
19.6762 6.4101 -0.0217159 0.175272 
26.634 1.5412 -0.110943 -0.204398 
24.1552 0.7786 -0.0932639 -0.00622602 
21.3484 6.3256 -0.0576791 0.258675 
20.0935 6.2832 -0.0442899 0.0394776 
24.9394 4.511 -0.0279201 -0.450424 
23.9382 1.8926 -0.30515 0.00912145 
19.9294 6.617 -0.122965 0.120255 
22.2036 4.5361 -0.0187938 0.126055 
25.8018 6.6973 0.0951131 0.154068 
27.425 0.6137 0.216189 -0.341991 
18.0027 2.4538 -0.1517 0.0224518 
27.5486 2.9949 0.123325 -0.211529 
18.2288 5.4913 0.116762 -0.164815 
15.3377 3.2283 0.156058 0.145656 
16.445 4.6108 0.0275117 0.100076 
16.2768 2.3625 -0.117076 -0.203369 
25.7181 3.6813 0.0241407 0.218633 
27.508 4.5685 -0.105877 0.267892 
18.1861 1.0965 -0.0478078 0.286569 
21.4352 1.6994 0.017924 0.120778 
22.9685 3.0859 -0.148451 -0.0828626 
17.3024 5.2344 0.109526 -0.0567448 
15.5435 1.0297 0.124588 0.0705304 
18.5736 3.2 -0.125252 0.131417 
15.9313 2.8721 0.0509872 -0.114067 
20.5195 1.1259 -0.180138 -0.154672 
26.6972 6.0302 0.042633 -0.0422178 
25.7814 2.4718 0.103168 0.0114125 
19.4732 4.2976 -0.0695775 -0.0140815 
20.3038 2.6014 -0.0864264 0.0736322 
26.7757 1.9509 -0.0385035 0.15086 
19.572 3.3706 -0.135762 0.0979386 
16.1462 3.088 -0.15315 -0.00949693 
16.3463 0.5732 -0.11226 0.0421708 
26.2866 0.5033 0.0525294 -0.10678 
14.7185 2.7956 0.0238664 -0.204323 
18.0073 2.9585 0.107787 0.189446 
15.6516 6.4229 -0.0849367 -0.0560359 
26.9507 2.0584 0.0857027 0.0532615 
20.5798 5.373 0.141762 0.222879 
17.1386 0.9154 0.0619211 -0.0946617 
27.0885 4.4774 -0.111316 -0.0346249 
23.6932 6.1023 -0.179158 0.00395823 
18.3788 3.8785 -0.0744609 0.0991143 
17.6133 5.3567 -0.0154696 -0.0775134 
16.3409 5.8923 0.0263609 -0.21614 
23.3372 2.3478 0.107622 -0.182285 
21.5682 4.3438 -0.0181036 0.0192879 
21.775 4.7365 -0.0635404 0.141647 
26.1668 5.3671 0.156263 0.0123514 
19.1623 4.8745 0.209947 0.00705519 
16.4334 5.0441 -0.138758 0.0474341 
19.2981 0.9107 0.107558 -0.0174898 
21.516 1.0081 -0.00679392 -0.169399 
25.266 1.9525 -0.0430351 -0.0531122 
24.702 2.7599 0.0841358 0.271087 
24.489 5.0318 0.106542 -0.170286 
26.3299 3.8277 -0.153965 0.0616818 
25.2335 6.5684 -0.188094 0.0973263 
25.4246 5.72 0.110412 0.0746091 
24.51 1.4442 -0.161559 -0.0718111 
16.5573 5.7774 -0.173932 -0.171542 
22.047 1.8982 -0.0865949 0.106366 
19.4371 5.5549 0.16379 -0.0635811 
22.8223 5.9882 -0.00702683 -0.183406 
17.6731 4.4559 -0.148116 -0.22252 
16.6973 1.7382 0.0292841 -0.323437 
14.9296 0.6995 -0.102659 0.179424 
18.9822 2.5128 -0.109962 0.116846 
27.0184 4.8823 0.222908 0.0961025 
21.7128 5.9484 0.00722798 0.0304637 
22.631 5.5558 0.13931 0.128606 
14.1076 4.0974 0.274743 0.0598687 
16.0201 4.8515 -0.0873921 -0.168815 
18.7127 3.37 0.0259292 0.12602 
24.914 5.3065 0.0056509 -0.19801 
16.9709 4.9248 0.149766 -0.237407 
17.4488 1.9253 0.123106 -0.171443 
18.433 6.3844 -0.169088 -0.253417 
24.2338 2.1481 0.231677 0.0914639 
24.4969 2.4815 0.19248 0.0104383 
18.3587 2.6704 -0.0313826 0.0647055 
14.9257 6.1663 0.0344896 -0.138064 
21.0422 4.8611 -0.00589198 -0.20307 
21.993 2.5893 0.0187794 0.125989 
25.5716 6.7501 -0.156477 0.225411 
23.1539 1.5557 0.0423735 -0.280084 
17.0709 4.2111 -0.186737 -0.35356 
21.0411 2.5427 -0.0286916 0.0840446 
16.1748 4.2669 -0.0932787 -0.131068 
21.1008 0.5485 -0.0216613 0.112802 
17.1474 3.4757 -0.106873 -0.0342877 
20.3108 5.3492 -0.0197114 0.017623 
18.8733 1.0414 0.206387 -0.00872941 
14.4763 2.5275 -0.206314 -0.0118736 
26.009 3.5048 -0.0402364 -0.0179049 
22.4487 6.0385 -0.00971803 0.0373551 
23.3878 3.7321 -0.0725077 -0.146803 
24.5875 0.5033 0.0567385 0.132233 
19.0951 3.3557 0.0533322 0.102138 
23.0753 1.1105 0.162916 0.144015 
14.9686 5.5611 -0.128959 0.109341 
18.0326 1.9411 -0.000361928 -0.0392645 
21.824 1.464 0.111951 0.105172 
27.6944 5.4552 0.108539 0.0881545 
22.3862 4.8449 0.121048 -0.0904638 
21.4022 2.8914 -0.23671 -0.0791373 
17.847 4.8252 -0.0942956 0.243089 
20.3988 5.9146 -0.1092 -0.0551065 
19.7338 2.0936 -0.0450167 -0.0696281 
15.1588 2.9117 -0.137188 -0.206063 
20.7588 3.3417 0.0182061 0.234347 
16.4784 2.2545 -0.0297709 0.038269 
22.0811 4.1287 0.0768156 0.0158136 
18.9325 3.636 0.0400876 0.11459 
26.1363 1.926 0.0952111 0.0476002 
20.6608 0.792 -0.0847077 -0.0614173 
20.4353 3.9273 -0.153102 0.24458 
18.1016 1.7289 -0.291259 -0.0654218 
20.3565 4.159 -0.297057 0.178911 
16.7813 3.0322 -0.120434 -0.331675 
14.7414 5.2855 -0.170744 -0.0176046 
16.8554 2.7937 0.134899 0.0764571 
17.618 3.0648 -0.106667 -0.105263 
22.1948 3.523 -0.143077 -0.200404 
14.8175 1.4705 -0.131516 0.22256 
23.4825 4.7443 0.211425 -0.00864244 
20.8973 0.5118 -0.247009 -0.133479 
26.235 3.5423 0.0668088 0.0563974 
16.8907 2.2397 0.0281842 0.060338 
20.9983 5.1623 0.00744908 -0.196372 
20.1523 1.5161 0.0990085 0.16499 
23.9909 4.2614 -0.126839 -0.230023 
19.0136 1.2962 -0.291664 -0.0117364 
25.2996 1.685 -0.00514512 -0.131518 
17.334 0.5733 -0.121836 3.58948e-05 
24.9333 0.8972 0.0118423 -0.131024 
16.5292 1.5121 -0.17856 0.139052 
22.5424 1.8356 0.283399 0.1554 
14.2599 0.8409 0.0953308 -0.0212995 
18.0715 3.1531 0.160582 -0.0254346 
23.8338 4.0307 -0.0188503 0.242338 
14.7046 6.6826 0.335239 0.191388 
25.6693 0.8795 0.0570051 -0.123084 
19.5225 2.4121 0.123093 -0.169949 
18.9959 5.9049 -0.268896 0.118091 
25.0691 5.9382 0.125809 -0.0873651 
25.1233 3.5984 -0.0141976 -0.00939066 
19.2674 5.1773 -0.00438355 -0.144982 
16.1848 6.0799 -0.12874 -0.0408653 
21.9802 1.2698 -0.0388862 -0.0733931 
27.4443 5.4395 0.1912 0.0950251 
15.8712 3.8949 0.168046 0.103537 
19.8112 2.9358 0.00693626 0.059365 
15.2977 5.4677 0.00648444 -0.236443 
23.9029 0.9953 -0.070365 0.0686826 
27.6796 0.603 0.0536039 0.127265 
19.0053 5.2094 0.263403 0.179415 
19.6318 0.8271 -0.0869597 -0.0478591 
15.7444 1.6011 0.103316 0.00145855 
20.1689 5.8892 -0.334623 0.278032 
26.3045 3.028 0.0048959 -0.0570629 
22.3393 2.5341 -0.00176325 -0.025863 
15.6051 3.0815 0.162115 -0.00310909 
24.0006 1.3287 0.137512 0.00653926 
15.778 4.155 -0.181578 0.113907 
20.0516 5.494 -0.23935 -0.00816841 
19.3644 5.9926 -0.0446311 -0.0302557 
19.4104 1.7967 0.133606 0.143566 
21.268 4.9135 -0.0567037 0.083626 
26.3038 4.8126 -0.0539822 -0.0911651 
23.6036 5.71 0.0392578 -0.0935632 
22.4395 2.3422 0.0803167 -0.00786234 
24.375 2.9217 -0.0972001 -0.0605306 
22.849 5.0105 -0.070624 -0.268536 
18.6169 2.3553 0.100148 -0.200531 
24.1221 2.948 0.116303 -0.0453006 
25.5441 3.579 0.364381 0.0823646 
26.4584 2.4336 0.0661754 0.0775644 
18.7203 4.1156 0.0164449 -0.13692 
25.8672 1.2244 0.178443 0.0742785 
22.8447 5.4887 0.010501 0.0564521 
24.4988 3.6005 -0.0111548 -0.0857295 
20.8354 1.7114 0.148673 -0.0514181 
25.7961 6.0618 0.249141 0.309513 
21.9266 6.792 0.00634592 0.185968 
21.8404 3.5617 -0.219317 -0.011143 
20.4245 4.4759 0.0903244 -0.0473937 
17.6391 4.2538 -0.0336173 0.0732611 
18.8054 1.4496 0.10039 -0.0803032 
23.3641 3.932 -0.181566 0.112739 
21.9514 3.2899 -0.2432 0.126818 
16.552 5.2972 0.0846154 -0.129346 
24.1116 6.6834 -0.0449297 0.190409 
16.0305 0.812 0.245512 -0.0200046 
18.4524 6.7705 -0.049982 0.122084 
19.5022 3.7441 0.0411298 -0.0444221 
21.1788 1.7646 -0.146734 0.0223753 
23.4238 1.147 -0.325533 0.0661659 
22.4859 3.3372 -0.197281 0.165523 
19.0145 0.851 -0.340838 0.315623 
18.8188 4.5437 -0.139456 -0.0980483 
15.2811 1.3556 0.0961565 -0.0226151 
27.4078 2.4158 -0.159231 -0.0896166 
22.3981 4.4462 -0.12698 0.00765454 
18.718 5.45 0.0241964 0.0694879 
16.8144 1.1801 0.0501489 -0.154298 
16.2201 5.6035 -0.421417 0.00226965 
22.8066 2.3651 0.101171 -0.144984 
20.5419 6.6295 -0.131446 -0.172645 
20.9953 1.539 -0.0217783 0.0774083 
19.2896 4.5728 0.0184756 0.0783069 
17.3671 1.3502 0.0155549 -0.0440011 
26.7195 5.3031 -0.0150537 0.0830889 
18.3317 3.6743 0.226898 -0.0210235 
27.7434 3.8069 -0.0681568 0.199739 
25.6437 0.5898 -0.117767 0.104215 
21.3481 5.9684 0.0266817 -0.227595 
15.4867 2.3977 0.00838066 0.0422478 
23.3714 3.0266 -0.225846 0.0691814 
20.6223 1.6798 -0.129747 -0.0369107 
15.129 3.1171 0.0206835 0.0583896 
22.6595 3.4432 0.125668 -0.163574 
24.1311 6.1873 0.110629 0.0994611 
21.1343 5.4704 -0.0485618 0.0340241 
15.2481 6.4307 0.20439 -0.0976593 
20.0992 5.1819 0.0347648 -0.0500703 
16.7474 4.3047 -0.12299 -0.225696 
27.0736 3.2744 0.0248945 -0.0563674 
17.1252 6.6773 -0.10938 -0.0100685 
23.7868 2.0426 -0.128498 -0.110544 
17.2204 2.2644 -0.0139968 -0.111911 
17.0552 1.8562 0.242972 -0.00944182 
ITEM: TIMESTEP
5000
ITEM: NUMBER OF ATOMS
784
ITEM: BOX BOUNDS pp pp pp
0.0000000000000000e+00 2.8000000000000000e+01
0.0000000000000000e+00 7.0000000000000000e+00
-1.0000000000000000e+00 1.0000000000000000e+00
ITEM: ATOMS x y vx vy 
8.46797 1.24241 -0.0616508 0.104007 
9.29672 5.22754 0.0357131 -0.359561 
8.50693 4.54624 1.11787 -0.518388 
11.2102 3.01723 0.846447 -1.20423 
6.59378 4.13676 0.245317 -0.182965 
10.6633 2.63117 -0.319131 0.691008 
3.2136 6.4123 -0.666092 0.512266 
0.0995175 5.05023 -0.181576 -0.306148 
9.47042 1.89663 0.0888957 1.75794 
13.5388 2.32674 -0.902903 2.22642 
3.7014 4.71435 -0.731493 -2.62374 
6.00681 0.377285 -0.694006 -0.66245 
9.62411 5.68088 -0.515493 0.0240049 
5.36077 0.197317 0.0395628 -0.874731 
8.50124 0.628741 -0.972937 0.818044 
0.866454 4.42669 0.26613 0.48099 
0.121259 3.91184 0.570364 0.62234 
13.0475 0.158642 -0.00183075 -0.0802286 
11.9884 4.74632 0.754124 -1.53873 
12.6633 5.59116 0.232408 0.254945 
4.44412 3.44168 0.101239 -1.04785 
12.8491 1.69991 1.11632 1.56375 
7.90368 0.680653 -0.305338 0.0634123 
0.48074 6.72163 -0.461892 -0.907325 
1.7112 2.28181 0.0192717 -2.10394 
0.8083 6.04029 -0.224755 -1.98482 
5.80743 0.732618 -1.28389 0.501681 
9.30431 6.57507 -0.60651 0.670567 
12.7344 6.71023 -0.0522619 -2.53078 
13.1925 5.78597 1.21602 1.70929 
3.25594 5.3123 -0.152326 -0.763562 
2.32717 1.89061 0.399355 3.27622 
7.60464 6.59779 -1.06208 0.486397 
0.139104 0.237298 0.0880031 -1.33974 
8.49867 2.44565 1.14459 1.68966 
9.79799 3.89838 1.17704 -1.80805 
5.69447 4.66745 -0.206915 -0.258077 
13.3179 6.19779 0.795843 0.481277 
7.2841 0.683839 1.40574 1.44266 
13.4508 5.27378 1.37816 0.143322 
9.17176 5.72287 -0.933898 -0.196897 
8.91178 3.70819 1.82711 -0.455048 
4.77367 4.48018 1.01917 0.456953 
1.69982 6.70271 0.429569 -1.34802 
2.85583 1.99995 -1.29263 -1.89853 
6.3636 4.78914 0.0886863 -1.49097 
6.56781 5.36516 0.955122 0.0961258 
13.1078 2.91245 1.68488 -0.451202 
8.63115 5.78744 0.90777 -1.86996 
6.81687 2.13903 1.52963 -0.151427 