ITEM: TIMESTEP
0
ITEM: NUMBER OF ATOMS
1372
ITEM: BOX BOUNDS pp pp pp
0.0000000000000000e+00 2.8000000000000000e+01
0.0000000000000000e+00 7.0000000000000000e+00
-1.0000000000000000e+00 1.0000000000000000e+00
ITEM: ATOMS x y vx vy 
7.4995 2.4177 -0.137683 -0.0991897 
12.9324 2.2867 0.228036 0.153706 
9.3349 6.7846 0.00750039 -0.0527783 
10.8464 5.9058 0.086463 0.076202 
8.0769 4.7816 0.020607 -0.179316 
11.8353 1.7424 -0.195532 0.0733887 
11.3414 4.9549 0.112587 0.0422391 
9.815 5.9576 0.0278314 0.304785 
7.0969 0.6207 0.0350045 0.0289 
1.5025 3.7988 -0.111646 -0.140772 
13.5052 2.4878 0.103625 -0.0422806 
6.3477 0.7665 0.242789 0.0858734 
2.5515 1.6935 -0.10981 0.0365195 
7.9293 6.5972 -0.0709092 0.195471 
10.655 6.6558 -0.136163 -0.040129 
6.9803 1.7797 0.124222 0.163629 
7.4431 2.0006 -0.127011 0.160923 
12.9829 3.8394 -0.196644 -0.0167439 
2.1686 3.7141 -0.0367638 0.0322433 
5.3393 1.2238 0.0333526 0.387463 
11.1295 1.1051 0.0797887 -0.125418 
3.9601 4.6296 -0.208323 -0.251076 
3.1999 4.1998 -0.00640372 0.0576873 
4.2628 5.7983 0.106601 -0.186475 
4.7764 6.0105 0.368164 -0.24053 
1.0478 2.8582 -0.123357 -0.0300914 
8.036 2.9075 0.0927306 0.148167 
8.0191 6.7811 0.103843 0.248718 
1.7331 2.6613 -0.0902902 -0.391454 
12.7625 5.7667 -0.039922 0.104231 
11.3461 4.5107 0.196868 0.0183607 
13.3185 5.2585 0.238785 -0.173616 
12.314 1.5934 -0.0490857 -0.0144802 
2.9136 5.9182 0.0321489 -0.0731658 
8.64 5.6373 0.00618227 0.0296253 
4.8855 4.2889 0.162678 -0.0806534 
5.0976 6.2247 0.0713695 0.185904 
1.9877 3.209 0.0189141 0.0108491 
4.5956 6.235 0.217954 0.0778059 
1.0256 4.1742 0.0343291 0.0495229 
13.3438 6.7269 0.0251742 -0.047822 
7.2715 4.2044 -0.0245286 0.0270612 
12.7679 2.5097 0.1787 -0.0256344 
9.8719 6.4744 0.0455638 0.00744497 
8.5194 5.3001 0.203796 -0.0735191 
6.183 3.0824 0.253412 -0.308775 
4.4016 4.4592 -0.0675793 -0.084023 
12.4809 2.4167 -0.0557618 0.0466698 
9.1876 4.6864 0.142738 -0.00666808 
12.9135 3.3248 0.0554075 -0.158092 
0.9817 4.6844 0.00809386 0.0538223 
6.2128 4.8148 0.0544122 0.170647 
13.7695 4.3266 0.0306699 0.0349557 
0.8095 0.8981 -0.317433 -0.114829 
7.5136 3.1355 0.123302 0.287518 
3.9009 6.7975 0.0839414 0.116387 
2.3977 4.26 0.251192 0.135363 
5.8742 4.9329 0.148503 -0.202768 
8.8176 3.9894 -0.142837 -0.0422311 
8.7113 5.9799 -0.0705229 0.0271475 
9.3454 6.5521 -0.197114 -0.0450928 
2.06 2.4144 0.245378 0.100253 
3.7599 4.9701 0.142501 -0.00920944 
13.5077 3.5653 0.0396002 0.186156 
2.5572 3.4746 0.0162894 0.121338 
5.8763 1.932 -0.0971249 0.0435763 
11.7392 3.3321 0.0663909 0.0728928 
13.8805 5.3642 0.0697066 0.00834034 
8.6892 1.6558 0.22759 0.205276 
0.7521 5.6539 -0.0468101 0.00878621 
3.6464 6.1963 0.111622 -0.202962 
2.7886 4.4492 -0.0164941 0.0459368 
3.5686 5.3444 0.25643 0.148455 
8.2627 1.5557 0.0518574 -0.0403897 
0.5463 6.082 -0.183861 0.250887 
7.2449 2.6951 0.257873 -0.140476 
1.8984 1.9737 0.162743 -0.0255341 
6.7918 6.7926 -0.184377 -0.0170373 
5.4244 6.774 -0.0492588 -0.0649839 
6.7156 5.1526 -0.1172 0.138891 
12.9184 0.8864 0.0803293 0.0140375 
3.3369 4.7241 -0.253345 0.0641599 
7.8589 6.1486 0.0176569 -0.103563 
6.1394 2.8189 -0.0711251 -0.139865 
1.7108 3.693 0.257002 -0.275794 
5.4618 2.6382 -0.0542935 -0.00531252 
10.7685 2.8157 0.0156862 -0.0874244 
13.5483 6.6976 -0.0348162 0.0272411 
2.9945 1.3144 0.0556107 0.120272 
6.68 0.8646 -0.0633499 0.185025 
11.3511 6.5135 -0.0878653 -0.118458 
1.846 4.4046 0.0464149 0.2578 
4.7938 2.5885 0.102399 0.118223 
7.412 4.7319 0.0395111 0.205266 
11.1426 3.1787 0.143358 0.014233 
1.1363 2.0583 -0.142047 -0.0298853 
8.6097 1.9517 -0.0413408 -0.0735966 
10.3815 3.4282 -0.0816819 -0.0211936 
12.6847 1.3709 -0.0464844 -0.164928 
13.5502 4.5657 0.125478 -0.253654 
3.292 2.0319 0.153587 0.122061 
8.4839 6.5705 -0.0786633 -0.203373 
9.9357 3.6969 -0.0499921 -0.155234 
6.2258 2.0878 0.152099 0.130192 
1.9945 4.665 0.0073914 0.153854 
1.4089 5.0899 0.028333 0.0949717 
10.5802 4.4671 0.182412 -0.0766525 
10.1282 2.4435 -0.305188 -0.00107364 
9.4398 5.3318 0.00779558 -0.19065 
12.4493 2.7339 0.195209 0.0444887 
1.5007 2.0686 -0.0893983 0.299883 
10.8631 1.7903 0.339851 0.0475263 
11.2065 3.6173 0.00423079 -0.0442543 
8.155 4.2166 0.142331 -0.0447412 
3.7847 3.97 -0.109405 0.027531 
10.8618 3.2739 -0.037318 0.038053 
6.4427 2.3126 -0.0069691 -0.24624 
0.9238 1.9899 0.126932 0.0583464 
11.0391 4.7918 0.101902 0.0879531 
2.922 0.7589 0.13067 0.0650248 
12.1069 4.6475 0.153801 0.14634 
5.8039 1.4691 0.121378 -0.17283 
5.7982 2.5141 -0.178144 -0.0873379 
1.3621 2.9373 -0.176423 -0.0577529 
6.1431 0.6458 -0.0544792 -0.19083 
13.4111 6.4584 -0.0553697 -0.00700804 
6.191 6.0842 0.116844 0.065267 
12.6241 0.9052 -0.166898 0.0112132 
8.1686 3.3203 0.0470492 0.00544533 
6.8118 5.8534 0.0770543 -0.024046 
3.5627 0.9689 0.0170585 -0.133185 
10.2402 5.4993 0.232422 0.0739494 
10.6275 1.9611 0.0117882 0.160839 
6.918 2.1112 0.0416584 0.00640324 
5.3291 3.5776 -0.023649 0.00817644 
1.9337 6.7418 -0.0055257 -0.221933 
1.5751 1.1282 0.0458108 0.10873 
10.372 5.3419 -0.438422 -0.18797 
3.7871 5.9989 -0.223999 0.0185611 
8.0713 0.9083 -0.285662 0.00211451 
5.3176 5.9846 0.210219 -0.229584 
11.4202 5.7408 -0.00991279 -0.340374 
2.1347 0.8748 -0.0808063 -0.0266536 
12.4013 4.4377 -0.0566351 0.0814471 
5.5444 2.8423 -0.220882 -0.0748435 
12.0924 5.6806 -0.0121194 0.0991696 
5.6758 0.6816 -0.00283064 0.140672 
9.6196 2.6677 0.223684 -0.0858601 
2.7738 3.1861 -0.255463 0.165383 
13.1253 5.0792 -0.237283 0.0495594 
1.8742 5.8203 -0.0751357 0.0584985 
11.03 2.1996 0.110122 0.106519 
9.7689 4.8766 0.128681 0.0495788 
2.6809 2.3971 0.0284292 -0.0394264 
4.6479 2.2365 0.223064 0.152556 
5.1603 0.8398 0.160231 0.199748 
10.6804 1.6764 -0.128175 0.0605019 
4.2496 1.5001 -0.104156 -0.00698845 
3.0424 4.7789 -0.0818424 -0.190572 
1.4713 5.3325 0.0935835 0.0845979 
10.9692 5.2016 -0.167726 -0.0368959 
9.1392 2.9324 -0.267826 0.177503 
10.0258 4.8829 -0.0896738 -0.0736576 
9.9921 5.1094 0.0991716 0.156911 
10.4155 1.8524 -0.115625 0.113831 
0.5043 2.492 0.0541741 -0.260821 
0.7008 4.2524 -0.0715021 -0.074079 
10.6086 4.7925 0.153097 -0.188124 
2.3026 4.9762 0.0417896 -0.0429516 
1.5776 3.0229 -0.0781427 0.0615859 
9.9071 5.5749 -0.031242 -0.0917516 
1.311 3.4141 -0.0806829 -0.07287 
11.7369 0.6015 0.170158 -0.111029 
4.1764 6.5951 -0.0772321 -0.171308 
13.1267 3.5863 0.0972996 0.00105715 
10.1587 3.8843 -0.0603794 -0.0629985 
2.886 1.8031 0.0592821 0.240501 
12.3895 0.7525 0.0855774 -0.0819442 
2.6361 6.6632 0.0216883 0.0443564 
9.0281 2.4187 -0.02346 0.172045 
0.8181 4.5517 -0.0403771 -0.126952 
5.6121 2.133 -0.098679 0.0508671 
0.8918 6.0863 -0.0180663 -0.0848666 
10.6315 3.5951 -0.093982 -0.025428 
1.4889 1.8677 -0.106199 -0.121922 
2.6608 2.9033 -0.288053 -0.0429049 
7.7099 4.2005 -0.173442 -0.0324026 
2.9135 3.5214 -0.138719 0.42218 
12.8111 4.0465 0.141861 -0.0260719 
3.9361 5.7195 -0.0319495 0.0663615 
6.3634 1.5829 -0.0151919 0.107288 
13.7302 2.0546 -0.222343 -0.149282 
1.3393 5.5219 0.135703 -0.0232162 
5.4981 3.7067 0.184266 0.189499 
13.4898 2.2356 0.150955 -0.170552 
5.4313 4.3273 0.0440324 -0.174366 
8.1161 1.1871 -0.140827 0.163498 
6.7396 1.2374 0.140291 0.0419687 
8.4487 6.3129 0.152209 0.0721333 
2.7725 5.6051 0.0842453 -0.260952 
5.8784 2.8701 0.0332452 -0.04657 
10.6494 0.9619 0.0230664 0.313285 
5.047 4.1191 0.034004 -0.0537175 
1.1746 2.3872 -0.053105 0.0249436 
3.0497 5.5886 0.199098 -0.0445693 
3.556 5.7038 0.17609 0.0365824 
11.0649 5.4397 0.178711 -0.109606 
2.0699 0.6345 0.280777 -0.0425186 
9.3165 1.3075 0.00257216 0.250226 
11.9587 1.2477 -0.18901 -0.0690272 
0.9941 5.6656 -0.113507 -0.112531 
1.3606 2.727 0.413476 0.0192069 
5.4258 4.9604 -0.211318 0.00750038 
13.5589 3.7698 0.194264 -0.0282623 
1.106 3.2759 0.101419 0.00637053 
12.9806 4.4073 -0.135447 -0.328143 
6.9576 4.3102 -0.156506 0.036036 
13.4741 6.1714 -0.0691982 0.102343 
6.611 5.8784 0.0436574 -0.133957 
2.4208 1.4758 0.296559 0.0492447 
4.0948 3.7937 -0.0907887 0.141607 
7.2284 4.6219 -0.0814727 0.116227 
12.3429 4.8539 0.142487 0.0998049 
5.3285 4.527 -0.0465981 -0.0377438 
3.3657 0.9062 0.168356 -0.0841061 
9.0595 5.5527 -0.205764 -0.0806209 
4.0533 5.4402 -0.203359 0.23748 
10.7624 5.263 -0.522679 0.202954 
2.6769 6.2249 -0.30955 0.103343 
8.0943 4.0039 0.106919 -0.100694 
3.6361 6.5744 -0.167028 0.296426 
7.7253 4.6274 0.0720505 -0.0794568 
11.3465 1.4825 0.0530916 0.0715947 
8.5656 4.3248 -0.218787 -0.180816 
13.4855 0.7584 0.00868681 -0.237477 
0.7824 3.1323 -0.0027829 0.163727 
13.9755 6.2712 0.0834856 0.268862 
3.8655 1.3925 -0.0334703 0.001941 
4.4934 4.8554 -0.110678 0.241897 
12.8454 6.7845 0.0965847 0.131556 
11.181 2.8834 0.0484611 0.0245361 
11.0248 5.9963 0.0160259 0.00448557 
8.131 0.5775 -0.0665459 -0.0781526 
3.3368 3.3286 -0.186159 0.0588856 
3.6315 3.3125 -0.00159672 0.165697 
0.9921 6.6427 -0.168118 -0.154663 
5.2183 2.081 0.24708 -0.00682867 
12.3008 3.2653 -0.323745 0.0419174 
1.9465 1.2308 0.0822968 0.056382 
8.555 3.9223 -0.197626 -0.19561 
13.0073 2.6553 0.0956866 0.124524 
4.9679 6.5358 -0.0132119 0.0778543 
6.4328 6.1346 0.0560941 0.123601 
3.8201 2.9541 -0.150997 -0.0511771 
5.0597 3.5928 0.0405099 0.00223877 
2.1365 1.0839 -0.0792386 -0.042668 
1.0457 0.9225 0.0666828 0.0430555 
2.6743 0.8503 -0.233233 -0.0121978 
4.2381 1.9795 -0.0496736 -0.0484137 
9.2481 6.0634 -0.0243527 0.162524 
4.6686 6.6098 -0.012302 0.0530637 
4.5369 2.4914 -0.0121688 -0.170547 
10.8734 2.5086 0.0294376 0.207494 
0.9335 2.6035 0.103915 -0.0485789 
8.4049 3.073 0.0217537 -0.100577 
2.0737 2.9728 -0.00313633 0.0473605 
11.639 6.272 -0.0548117 -0.105208 
5.048 0.6069 0.229581 -0.0449106 
3.1144 0.5559 -0.0690397 0.0753049 
1.5625 6.1507 0.080116 -0.116567 
11.2928 2.3416 0.0299534 -0.0136999 
4.7026 1.6959 0.293314 0.0452448 
1.8571 2.9363 0.187379 0.259807 
12.2509 3.9347 -0.00304472 0.0309435 
13.2759 4.0655 0.0745733 -0.0939853 
7.0398 3.8284 0.0224894 0.149961 
10.2615 4.4167 0.0740986 0.00809954 
11.2824 3.8359 -0.144941 0.0630615 
6.2025 1.3268 -0.103311 0.0594553 
0.6847 3.7086 0.0121947 -0.11711 
7.965 0.7093 -0.0539171 -0.0588866 
0.6471 1.652 -0.133322 -0.101013 
3.7017 4.3594 -0.20529 0.277237 
12.8455 1.2398 0.147585 -0.0996654 
8.8592 5.3991 -0.00544035 -0.252915 
13.0053 4.1772 0.0306252 0.127353 
3.449 3.7312 -0.0978347 0.156749 
3.3441 4.9966 0.179545 0.0106128 
0.681 6.7328 0.222044 0.162543 
11.0902 0.7394 0.407998 0.0148393 
4.2615 2.7859 0.114689 0.0641558 
3.9924 4.2043 -0.112242 0.0668729 
8.0172 2.2769 0.0305531 0.20166 
9.7049 4.1586 -0.0310469 -0.0238866 
10.2659 6.4217 -0.184994 -0.131684 
2.9548 2.8821 0.244049 0.0227808 
3.0292 3.2534 0.250493 -0.217383 
3.6214 2.5122 -0.158689 -0.00552328 
13.7672 4.104 -0.0469028 -0.119553 
2.6561 2.6821 0.345922 0.192966 
3.474 1.3929 -0.113657 0.000697547 
7.5019 3.437 -0.0444903 0.033602 
5.1973 4.6821 0.125821 -0.180976 
5.3214 3.0014 0.0554432 0.16812 
8.3666 1.3125 -0.0413816 0.139797 
0.5937 3.4624 0.0109909 0.032527 
2.9703 2.4817 0.151843 0.0354906 
7.1659 1.4906 -0.00346304 -0.0132701 
0.874 0.6447 0.0232459 0.0965756 
3.5466 4.6315 -0.0899367 -0.0444827 
8.5093 3.6388 0.136007 0.160009 
13.3915 3.8844 -0.045888 0.0606013 
9.9579 4.5457 0.111262 0.0793965 
13.135 6.094 -0.19932 -0.0473916 
1.8568 6.1762 -0.135652 -0.0696875 
1.218 6.3355 -0.378448 -0.0299373 
1.7748 0.9356 0.124792 0.0521898 
9.1887 5.8033 -0.127371 0.0756325 
12.5861 3.206 0.107961 -0.0617531 
11.3773 1.795 0.0453597 0.0715063 
8.6281 1.303 -0.0427933 0.0488387 
4.9246 2.8741 -0.157253 -0.244278 
4.6167 0.9371 0.0570799 -0.147993 
5.9469 6.2907 -0.156171 -0.155846 
12.1485 3.4834 0.0183323 -0.198443 
2.3551 5.8176 0.0884279 -0.0834182 
4.1786 4.3153 -0.006581 -0.154111 
3.3534 6.0248 0.0834378 0.249026 
10.5671 2.1964 0.0835744 0.0021169 
10.5049 3.8565 -0.182726 0.144068 
3.4821 2.2589 -0.0162945 -0.0221349 
9.3192 4.2484 -0.0990212 -0.0323981 
3.8549 1.8395 0.0566075 0.0326527 
10.6872 1.4196 -0.0761739 -0.118582 
10.5048 2.5432 -0.103321 0.0192725 
9.7021 5.7441 -0.0541625 -0.0252153 
9.7269 1.413 0.190306 0.00184798 
7.4693 3.7676 -0.0962267 -0.250404 
7.286 4.9582 -0.144942 -0.237223 
11.936 4.8099 0.0140615 -0.0467376 
11.5973 3.8612 0.0806713 -0.0297611 
6.3412 2.6741 0.189872 0.118294 
8.8102 4.9229 0.00974666 -0.0114784 
9.41 3.3041 0.0991652 0.127051 
12.0844 6.2972 -0.180607 0.0644226 
9.8076 3.1413 0.00328908 -0.197883 
13.495 5.9582 -0.0195299 0.00211268 
6.7898 5.3536 -0.172518 -0.201765 
0.6091 5.3404 0.113808 -0.039164 
12.2067 5.2178 -0.0273007 -0.340601 
12.3957 2.9791 0.0744179 -0.187965 
6.4576 1.0487 -0.0144342 -0.0361594 
11.2623 5.9535 0.00674389 0.272998 
7.3344 1.803 -0.015956 0.0361229 
4.4233 3.407 0.0424563 -0.116466 
4.1413 0.5766 0.116147 0.0748185 
5.0296 1.6774 -0.166962 0.148037 
1.4889 1.5661 0.196073 -0.13669 
12.6263 6.7173 -0.00315896 -0.0341915 
2.4857 4.7799 -0.0309023 0.0810427 
7.0988 1.9705 0.0989398 0.0660646 
12.5772 5.3704 0.0675271 0.227428 
6.8202 6.5898 -0.0915469 -0.138559 
7.0577 6.7634 -0.201418 -0.176716 
2.9281 6.1508 0.162036 -0.0112673 
6.163 4.4593 -0.0306845 -0.0034108 
4.2172 3.4273 -0.195244 -0.195087 
3.0965 4.4704 0.1951 -0.182566 
5.9205 2.1399 -0.0517821 -0.250038 
9.6693 6.6249 -0.00555667 0.26033 
8.5239 2.4415 0.34861 -0.185845 
12.1882 0.764 -0.0304035 -0.117605 
2.4667 1.2487 -0.0140017 0.0683696 
8.227 3.6272 -0.133326 -0.0681682 
12.8078 6.0314 0.0117923 0.0536514 
12.8152 6.5393 -0.0850369 0.226018 
7.1819 0.8259 0.0888981 -0.150893 
12.6204 4.836 -0.0578458 0.128937 
12.4729 4.6554 -0.0394685 -0.23286 
13.2129 1.5121 -0.133922 -0.0423667 
5.7267 4.6094 -0.0133419 -0.139373 
8.7001 3.1126 0.00643176 -0.0710725 
3.3662 0.5695 -0.168439 0.0777679 
11.2995 6.1557 -0.0957791 0.00923698 
1.2354 4.2364 0.0442806 -0.0933895 
4.8511 4.7765 -0.296891 0.175072 
6.0657 0.9167 -0.166371 -0.0582979 
1.7697 6.3905 0.00702637 0.0487154 
7.7459 0.8503 -0.114595 0.0957026 
2.8718 2.6904 -0.18038 -0.133554 
9.724 3.5955 0.022062 -0.0185272 
11.9194 0.7865 -0.124177 -0.105069 
7.3702 3.9944 -0.174229 0.0588135 
12.1761 4.1719 0.143822 -0.0982395 
6.0294 5.1127 -0.0416325 0.0846471 
8.6412 0.858 -0.0392524 0.185517 
2.4499 0.9191 0.0601941 -0.0919085 
5.3787 3.2121 0.216271 -0.0963892 
4.5717 5.8686 -0.0778062 0.0254522 
2.1713 6.7328 -0.0265472 0.0676091 
12.395 5.7427 0.0801061 -0.0778499 
8.3715 0.683 0.0635835 0.0293012 
8.6975 6.2967 0.144465 0.132285 
8.8099 2.0654 -0.175381 -0.0169964 
13.7028 2.8386 0.14567 0.149462 
10.1733 3.2161 -0.192612 0.0450726 
2.6458 3.8549 0.0816495 0.217037 
5.4219 0.8144 -0.232716 0.0406265 
0.8629 2.3619 -0.000498589 0.0538965 
10.8812 3.6193 -0.0829203 -0.239445 
0.8549 5.0294 -0.229782 -0.065328 
11.5814 5.3146 -0.199343 -0.176988 
3.0367 6.6456 0.243428 -0.0961687 
10.951 6.3102 -0.112593 -0.129509 
11.7608 5.7426 0.00471959 -0.0739798 
11.1794 1.625 0.215769 -0.0967833 
11.4687 3.1698 -0.0558561 -0.359753 
4.8886 2.111 -0.221196 0.148111 
2.6715 4.6118 -0.206577 0.183929 
1.6635 3.4549 0.101847 0.0845753 
2.3877 2.8067 0.0701071 -0.0507236 
9.0979 6.7981 -0.0137242 -0.185851 
5.2565 4.1977 0.0985325 -0.0692749 
9.2663 3.5917 0.0205362 -0.232286 
2.5876 5.6908 -0.0918965 -0.0799968 
11.675 2.0909 -0.05985 -0.0111489 
6.0275 5.654 0.380597 0.0474774 
8.8331 6.6407 0.12818 0.0875523 
2.1496 4.4403 0.0304294 -0.185838 
9.4005 4.801 0.030974 0.222049 
9.2219 0.6988 0.00609226 0.0251063 
7.8033 6.379 0.202411 -0.109698 
10.0092 2.2255 -0.0893465 -0.185415 
5.6449 4.1771 -0.0759532 -0.0334719 
3.9661 6.3594 0.0844257 -0.0201624 
10.3487 6.0887 -0.128549 0.0765173 
4.7177 3.5439 -0.209652 0.0795301 
1.8306 4.8694 0.145385 0.0443078 
6.0283 4.3055 -0.127422 0.127206 
4.1796 5.2368 -0.106729 -0.0665494 
7.6312 5.479 0.0131895 -0.221721 
9.6395 2.3682 0.161016 0.0640759 
12.521 6.2013 0.0291426 -0.0300743 
11.754 5.1307 0.24371 -0.29193 
13.0073 1.4158 0.00884121 0.237775 
12.0582 2.6562 0.155261 -0.0908661 
2.9176 6.4725 0.0322917 0.0805105 
7.2513 3.3751 0.0749232 0.226734 
5.43 5.3542 -0.189632 0.136596 
5.8845 1.2334 -0.00452001 0.0088839 
10.6158 4.0489 0.071898 -0.172177 
7.8986 1.7818 0.219471 -0.0134505 
8.5919 3.2965 0.0354802 0.0767426 
2.3738 6.0981 0.257657 -0.101438 
11.7329 1.4709 0.285167 -0.0603399 
4.9355 3.2247 -0.0237635 0.19585 
7.2542 5.9041 -0.0738204 -0.158904 
10.534 3.1586 0.194437 0.0959878 
8.5455 4.5942 0.0488296 0.102796 
5.9277 3.6127 -0.213016 0.0842742 
13.6659 5.1327 -0.140462 0.0196963 
4.6358 5.2239 -0.127351 0.0906509 
0.6659 2.6511 -0.007053 0.0596926 
6.7495 0.5846 0.0898961 -0.0311108 
10.1991 5.0457 -0.0156211 0.12875 
6.4394 5.6191 0.0757042 0.131506 
5.0221 6.0211 0.224075 -0.123447 
6.5601 4.8052 0.152408 0.0408488 
13.277 1.7483 -0.256717 0.0540155 
13.3118 4.8512 0.0224286 0.252049 
0.6512 2.9204 0.0949267 0.0818929 
4.9944 2.3575 -0.351698 -0.113014 
7.3792 6.3838 -0.0628043 0.0395921 
1.4259 6.3283 -0.163228 -0.251241 
12.2138 5.4514 0.141295 0.0122668 
9.4371 2.4827 0.0025275 -0.115791 
6.7199 2.0697 -0.0761193 0.0712676 
1.3191 2.5256 -0.0453169 0.0589809 
11.349 3.4251 0.0874958 -0.237028 
1.8845 1.5285 0.000542027 -0.0311154 
4.0177 2.3454 -0.330158 -0.0733374 
2.3914 4.469 0.0793145 -0.0312415 
3.2418 3.6559 -0.0214328 -0.160973 
10.381 6.6141 -0.145088 -0.176782 
6.387 5.0752 0.147598 -0.0700351 
9.6212 1.9271 -0.0816116 -0.0292369 
11.66 0.8812 0.150551 -0.266614 
8.9122 5.852 0.154445 -0.114569 
8.978 4.1752 0.0549022 0.136782 
12.1852 1.7828 0.136968 0.10774 
9.7828 3.8805 0.294256 -0.167172 
12.7778 4.2791 0.2518 -0.0205707 
5.1113 1.0407 -0.0374906 0.075653 
5.6642 3.1109 0.386808 0.00210166 
10.0888 1.2341 0.0324837 0.151834 
6.5522 4.4582 0.064651 -0.138519 
3.061 1.551 0.0848953 0.210971 
6.8771 0.7944 -0.164526 0.158925 
13.4729 1.4871 -0.0131155 -0.21601 
13.1264 0.9458 -0.0516625 -0.0127685 
11.5265 1.1319 -0.117976 0.118465 
0.656 4.0392 0.118546 0.210554 
7.0444 6.3044 -0.237012 -0.269686 
6.7065 2.5265 -0.14088 -0.00244426 
1.3612 6.6213 0.010079 -0.287598 
6.5428 3.0078 -0.0244732 0.0862783 
8.9739 1.5273 -0.185843 -0.189966 
2.1481 5.8393 -0.0355089 0.194107 
11.612 5.5506 -0.0199463 -0.155047 
1.5697 5.6168 -0.0104651 0.0211798 
3.5018 6.3781 0.183609 -0.113923 
13.7631 2.2968 0.256138 0.0391844 
11.006 4.3918 0.174968 0.0321281 
6.7419 4.3669 0.133179 0.0137604 
7.3837 0.7255 0.00409155 -0.0243528 
6.693 1.5287 0.0916568 0.00945019 
7.4087 2.9403 0.0733557 -0.0711618 
6.683 3.34 -0.134065 0.12281 
9.7109 0.833 0.062542 -0.234219 
1.8257 4.1665 -0.129226 0.00692785 
5.5631 5.774 -0.0782678 0.0596369 
7.6438 1.1646 -0.114296 0.198428 
8.5162 1.5482 0.156797 0.0905029 
1.7359 2.2262 0.40387 0.0382478 
9.1911 3.7789 0.0147384 0.0948009 
11.5824 4.8429 -0.1447 -0.0685815 
1.7018 3.2095 0.412613 -0.0906812 
2.4286 6.792 -0.250193 -0.0534273 
4.3832 0.8898 -0.244174 0.075208 
6.2524 5.7446 0.10844 -0.134887 
6.4601 3.1929 -0.0950255 0.300101 
7.4497 4.362 0.138193 0.0563807 
5.2398 5.2157 -0.184981 -0.0215733 
5.3874 6.3715 0.105562 0.00189493 
5.9038 3.2262 -0.0251401 -0.0969373 
6.1185 6.7338 0.219106 0.118538 
2.5843 2.1049 -0.0884 0.115815 
9.0454 5.1298 -0.448896 0.0216216 
2.0519 2.6641 0.00932868 -0.0710264 
10.0752 1.8782 0.158026 0.017065 
3.434 4.056 0.0205186 0.070265 
12.6637 2.2019 0.146106 -0.16715 
2.1156 5.0776 -0.229749 0.123867 
4.4755 3.0074 0.0873237 -0.052194 
13.2092 4.5513 -0.183 -0.0764867 
8.057 5.1796 0.336607 -0.125148 
4.5748 4.3351 -0.00695705 0.0506005 
12.2814 2.2087 0.0497733 -0.0430309 
12.9961 0.6059 0.0887892 0.239609 
10.1337 6.0556 -0.0156092 0.149526 
13.9603 6.7684 -0.1439 0.0110609 
3.6961 0.6712 -0.112419 0.274637 
0.9576 5.3477 0.256393 -0.0265901 
10.7909 5.0454 0.179787 -0.164506 
12.8896 1.5809 0.320666 -0.330174 
2.389 3.0755 -0.0540363 -0.017268 
1.2471 1.5377 0.109224 -0.292742 
2.1157 6.2079 -0.213183 -0.0669495 
9.497 4.3615 0.0147362 -0.0430541 
10.4944 5.1737 -0.0119413 0.273473 
11.0596 6.7792 -0.200758 0.117607 
1.0057 3.6122 0.121481 0.280728 
8.9812 3.0743 0.00965095 0.0683879 
2.6541 4.1973 0.00465968 0.0614244 
8.2512 2.2001 0.0393581 -0.158274 
5.8626 1.7099 -0.00678464 -0.0957116 
5.7944 5.8544 0.167318 0.208785 
9.0626 1.93 -0.191837 0.337188 
1.8701 0.6095 -0.161959 -0.0562526 
3.1533 3.9467 0.0948016 0.16937 
11.0713 1.9603 0.215051 -0.0472789 
6.9387 3.2344 0.13953 -0.00473381 
9.4473 6.2283 0.159081 0.0511658 
10.5329 5.9892 0.0592975 0.0248274 
12.5746 1.7633 -0.157563 -0.0894587 
9.5222 5.1419 -0.103616 -0.104574 
13.7155 6.2173 0.165504 0.109841 
11.8073 6.4081 0.133864 0.151865 
6.6284 3.5779 -0.0977 -0.194361 
4.8073 1.4373 0.225749 -0.0378723 
8.6706 2.8103 0.147603 -0.128593 
4.8065 0.726 0.367781 0.315696 
7.6282 5.6991 0.0367397 -0.0690476 
1.0696 1.3273 -0.108488 -0.112953 
9.8859 1.2407 -0.059313 -0.0184358 
7.4709 6.1145 0.0269212 0.122948 
13.7258 3.0584 0.243793 0.205801 
9.2014 3.3639 -0.0653804 -0.0539414 
9.815 2.9257 -0.0308354 -0.226134 
11.7689 2.826 -0.154534 0.237608 
11.2728 2.5812 -0.173504 -0.0278531 
5.6606 1.8052 -0.197003 0.0954898 
5.179 2.699 -0.0320462 -0.0362637 
3.8708 3.6184 -0.0396192 -0.0163909 
8.1 2.0169 0.173596 -0.00300006 
13.8763 4.9033 -0.0740929 0.0400091 
1.325 1.1677 0.160863 -0.00320969 
9.5752 6.0588 0.298496 0.102341 
3.9513 0.759 -0.129807 -0.270365 
4.909 3.9734 0.0546746 -0.205613 
3.5669 6.7838 -0.13904 0.174906 
13.9986 1.0062 -0.0241643 0.0381041 
1.7616 5.2419 0.041372 -0.211016 
8.3397 0.9219 0.223061 -0.0456223 
1.319 3.9822 -0.0726647 -0.101582 
1.6803 1.9325 0.231686 0.0350404 
10.9741 3.9612 0.140245 0.0953812 
8.9807 0.8538 0.137622 -0.0969031 
11.5172 1.6212 -0.251553 -0.0127685 
7.5567 6.6253 -0.0232854 0.0537948 
3.8441 5.2903 0.169541 0.0582356 
12.0824 2.0058 0.0336887 -0.106209 
7.1074 5.59 -0.125078 -0.095905 
13.1838 5.7616 0.139894 0.199113 
6.7966 3.8392 -0.0766628 -0.171222 
2.2956 4.0163 -0.123292 0.162477 
1.1842 4.6791 0.00973337 -0.0477924 
11.9829 5.082 0.00513214 -0.182421 
6.8928 2.6894 -0.239119 0.207568 
11.3547 1.2736 -0.053221 -0.0460047 
9.5785 3.9457 0.0891116 0.135488 
7.4133 0.9946 -0.0959111 -0.00432536 
4.704 4.6177 -0.168074 -0.101802 
8.1333 5.4436 0.0475149 -0.221883 
11.7514 4.4556 0.31058 -0.244648 
10.0053 1.5585 -0.101351 -0.1821 
6.257 6.359 0.196339 0.229539 
4.6037 5.4533 0.11723 0.0214593 
5.4618 1.7135 0.241498 0.134218 
1.5022 2.32 -0.101434 0.046925 
13.231 2.9363 0.0273672 -0.393268 
0.5143 1.2995 -0.0717329 -0.04613 
13.7606 1.2108 -0.0700243 -0.280703 
13.5952 3.2465 -0.37932 0.116882 
8.2927 6.0606 0.100921 0.0457976 
12.1684 2.9994 -0.0152861 -0.503711 
10.344 2.3496 -0.146441 -0.249663 
10.6049 5.7332 -0.0987005 -0.025218 
13.8018 3.5908 -0.0108636 0.0855413 
13.9174 4.5323 -0.251694 -0.0264672 
11.6395 4.2509 -0.133844 0.114405 
7.8597 3.9171 0.197935 0.176697 
6.138 1.5379 0.0773175 0.00548837 
7.6721 1.6548 0.0614678 -0.0618245 
9.613 5.563 0.127848 0.00304052 
4.2964 2.338 -0.0427162 -0.110312 
4.3753 0.6782 -0.137473 0.000754501 
7.7129 2.2644 -0.0128692 -0.00307844 
1.931 1.7348 -0.113732 0.0101488 
7.1928 2.4308 -0.0622073 -0.269119 
8.9535 6.397 0.0278949 0.208095 
8.0913 6.1474 -0.197513 -0.117374 
13.9778 5.8764 -0.385045 -0.0303044 
6.2844 3.6524 -0.272704 0.0632485 
2.8698 2.1811 -0.126913 -0.19397 
2.8212 4.8853 0.102685 0.116629 
11.8358 6.6448 -0.0807918 0.195138 
5.6933 3.4485 0.35041 -0.262991 
13.9072 1.5149 -0.0239001 0.11394 
11.8995 3.8226 -0.159417 0.121843 
4.2516 4.107 -0.0412371 -0.30095 
10.3526 3.7059 -0.089599 -0.0600187 
11.2702 2.0588 0.0277635 0.20655 
4.4471 1.7924 0.108285 0.13471 
12.7888 5.5528 -0.148062 -0.0788592 
8.7349 5.1938 -0.151566 0.0753602 
10.2812 2.8953 0.204561 0.11215 
10.3108 0.5283 0.132052 -0.0144093 
8.9421 0.5042 0.0061395 -0.118954 
5.2099 1.5259 -0.188407 0.23212 
13.4981 4.21 -0.149183 0.0116127 
10.2079 1.6923 0.208818 -0.0406759 
3.2892 5.7932 0.18503 -0.172236 
7.4158 1.2127 0.0181552 0.251791 
3.8277 3.2733 0.358031 0.0535259 
9.4885 1.1416 0.126511 0.0596399 
7.0679 1.1866 -0.121625 0.0891843 
2.257 5.272 -0.289087 -0.0691061 
4.4455 6.4058 -0.134031 0.210073 
4.6957 4.1614 -0.116319 0.0669834 
6.2203 4.0222 -0.151811 0.232251 
12.1324 4.9 -0.170666 0.0902391 
24.8287 6.3205 0.0270874 0.213237 
26.5943 4.5382 0.185012 -0.0837741 
17.0942 1.617 0.189306 -0.126451 
15.9224 2.5461 -0.00472295 -0.151207 
15.8096 3.6582 0.0593692 0.131358 
18.3944 5.9345 -0.212161 -0.163124 
22.138 1.5597 0.120791 -0.0703906 
14.4383 1.9353 -0.245849 -0.088365 
20.7738 3.3649 -0.0208057 -0.0275809 
24.1223 1.6355 0.382947 -0.185178 
20.0182 3.4265 -0.205027 -0.174577 
14.8679 2.77 -0.227204 -0.10087 
19.5227 5.5807 -0.267924 0.0467617 
18.3045 6.7941 -0.0026773 -0.0260333 
22.8903 2.165 -0.147853 0.109516 
23.4706 6.2184 0.132117 -0.147024 
25.0613 5.7199 0.303424 -0.150605 
24.2113 6.6918 0.117022 -0.189667 
14.6469 5.0362 -0.0200488 0.227444 
17.4625 2.3351 0.095945 -0.048126 
22.5063 2.8612 -0.151935 0.0839421 
15.1363 2.8416 0.136102 0.130704 
22.4575 5.6982 -0.0100245 0.0478212 
15.4225 0.8701 -0.0797499 -0.20125 
26.1508 4.9358 0.213395 -0.0908306 
14.9379 6.3455 0.115498 0.0385224 
23.2775 4.4587 0.0401178 0.396441 
15.4795 3.3792 0.167569 0.0463819 
14.2872 1.3501 -0.11648 -0.120003 
15.0263 1.6741 0.0268292 0.0768682 
18.5505 2.5019 0.184345 0.0656295 
16.3895 3.8275 0.0692514 0.0125827 
23.8202 1.3371 -0.0465941 0.0783421 
20.2959 0.8241 -0.0468155 -0.224093 
22.7819 4.542 -0.00817992 0.145963 
17.4238 5.6376 -0.247041 -0.502825 
16.3596 4.8242 0.219995 0.063818 
18.625 3.2737 0.187972 0.0723227 
22.5714 3.5547 0.12966 0.115982 
20.1004 3.2293 -0.11 -0.0261257 
19.2416 1.1427 0.181809 0.116435 
26.2447 6.7773 -0.0616558 0.0785191 
18.0673 4.2413 -0.205898 0.0590103 
18.5171 2.2137 -0.16344 0.06324 
27.2258 0.7109 0.157712 -0.137563 
22.1898 6.7212 0.133738 0.118312 
23.0951 5.041 0.0480044 -0.201849 
21.3708 0.9559 -0.109113 0.198899 
27.788 2.0038 -0.0892028 0.0893739 
25.1413 3.9967 -0.0188417 0.000974074 
14.2231 5.0632 0.10502 -0.0457729 
20.2799 2.277 -0.113088 0.0596979 
23.8947 4.3262 -0.0508097 0.340645 
17.6478 3.5219 -0.0670952 -0.122235 
24.072 3.0512 0.232414 -0.123902 
16.5047 2.2323 0.00816694 -0.0403937 
17.9733 3.2286 -0.15449 -0.00816085 
18.7085 5.5169 -0.182825 0.0683659 
27.5006 0.5367 -0.110983 0.143306 
26.6859 1.5047 -0.0364142 -0.138184 
27.1088 1.4391 0.1009 0.10525 
23.8793 5.3605 -0.263042 -0.0573785 
17.7737 1.6496 -0.144652 0.156841 
14.46 2.3079 -0.0289391 0.177378 
23.3765 4.8723 0.128065 0.0435516 
15.0287 4.1074 0.0241648 -0.331858 
14.0428 1.248 -0.234319 -0.006309 
19.8695 2.3508 0.0924248 -0.147986 
25.421 4.0704 0.0244157 -0.0498696 
18.1856 3.9722 0.110065 -0.224931 
17.6009 6.7021 -0.147646 -0.318745 
18.514 3.8295 -0.157657 -0.0391743 
17.6085 5.7542 0.0191057 -0.223598 
22.8636 5.8598 0.129958 0.263299 
23.6761 3.7489 -0.109675 -0.291048 
19.6155 1.4885 0.00227133 -0.0865201 
21.5281 1.6146 -0.147268 -0.0330313 
21.7869 5.8022 0.0297569 0.2639 
22.222 4.5941 0.0826216 -0.0992031 
21.5507 2.3216 -0.0121493 0.043683 
24.7565 1.0573 0.027165 -0.127912 
18.2565 0.8349 0.0892331 0.146089 
19.6941 3.4975 0.044604 0.194351 
14.8999 1.3119 0.225638 0.0394801 
17.1831 4.5035 0.0303631 -0.0637453 
21.6726 3.2734 -0.0736392 0.125927 
23.2656 3.0075 0.00925529 -0.0146355 
16.6822 2.5829 0.0139038 -0.199526 
24.7633 1.715 0.0342039 0.095163 
19.7151 4.0724 -0.00627459 -0.10234 
25.2093 6.6684 -0.120218 -0.116903 
16.0438 4.9326 0.10535 0.106256 
18.5776 0.5133 0.139614 -0.231585 
17.5518 6.3842 0.130823 0.0128442 
25.8641 5.3263 0.139183 0.0231279 
23.2664 6.6755 0.0059761 0.0025892 
24.1515 5.155 -0.387042 -0.129029 
20.9729 3.4273 -0.0784631 0.0119491 
27.4682 5.6873 -0.150487 -0.203777 
27.5445 3.8206 0.0616755 0.0611295 
27.6731 5.4243 -0.0966546 0.257324 
27.5244 6.0511 -0.17918 0.0146026 
26.1043 0.9993 -0.179714 -0.0672672 
22.1206 5.7113 0.0969327 0.236312 
24.8771 2.3646 -0.00490584 -0.172127 
19.7006 1.1094 0.0285645 0.156286 
20.7587 5.8225 0.0133737 0.046932 
27.6219 2.342 -0.152187 -0.240349 
19.0481 0.7762 -0.0092536 -0.0229238 
16.1411 0.7133 -0.0379816 -0.00719484 
19.0282 3.5897 0.153313 0.107697 
14.7237 3.352 0.143247 -0.0385972 
14.2603 3.0675 -0.0528864 -0.0176078 
19.418 3.4391 -0.0694307 -0.148569 
23.7522 5.5874 0.279292 0.123526 
21.1685 6.2441 0.297758 -0.127304 
14.6121 2.8327 -0.0840365 0.135902 
26.0535 1.81 0.135267 -0.158975 
26.7139 3.5212 -0.182641 0.010768 
17.9378 6.5528 0.00298415 0.029665 
23.4733 2.4752 0.0806492 -0.201099 
27.7134 1.6003 -0.307799 0.0602966 
22.375 3.4304 0.00532053 -0.209634 
26.4393 6.1382 0.206697 -0.210841 
21.1757 4.1782 0.127822 0.0226236 
26.1152 5.2053 -0.10045 -0.291767 
19.9455 2.9145 0.0837535 0.152629 
18.9582 4.1876 0.136642 -0.00560835 
26.6137 6.4863 0.213088 -0.0546811 
24.5937 6.6822 0.000152361 0.23717 
21.4273 5.2145 0.0380439 0.0738024 
24.6318 3.4218 0.0441221 0.0930663 
19.9651 1.6615 0.0266357 0.134955 
25.2392 3.2107 -0.0133853 0.228269 
15.0392 2.5432 -0.0209604 -0.0709754 
21.4152 3.5441 0.0728152 -0.0720251 
18.598 5.2328 -0.0154013 -0.0478421 
20.0568 5.8049 0.0942473 -0.0387213 
18.1345 2.1105 0.111161 -0.16776 
27.7394 6.5483 0.0342636 0.0685035 
14.9419 1.8936 -0.0971037 0.175381 
25.8126 2.1131 0.203247 0.120557 
21.813 2.3468 0.0943152 0.0727331 
20.4775 4.1484 -0.105227 0.0331384 
14.0926 4.3326 -0.0804588 -0.0124722 
23.132 4.2056 0.060484 -0.025225 
14.9722 3.2812 0.0392192 -0.082466 
26.1936 4.4638 -0.011408 0.187983 
23.458 5.8475 -0.0105834 -0.0752394 
25.5396 4.8824 0.0870052 -0.0907651 
23.2993 6.4185 -0.225392 0.237639 
22.4061 6.3828 -0.142769 0.219237 
16.5045 0.553 0.282938 0.111029 
25.2397 2.2779 0.228888 -0.0566609 
23.5716 4.476 -0.0183024 0.054832 
15.9125 1.5212 -0.117153 0.125329 
21.7438 6.0629 0.165182 -0.0774203 
23.9431 3.3479 -0.114221 -0.248435 
22.7918 6.1563 0.0749263 -0.0356614 
20.1466 5.5299 0.0850266 0.0695869 
21.201 0.6207 -0.0679801 0.0574243 
16.6874 2.3288 0.277087 0.169647 
25.9366 0.8766 0.140224 0.0364634 
19.0271 3.8241 -0.208242 0.0454325 
26.5767 1.7657 -0.022008 -0.179168 
25.5437 5.1323 0.164979 0.319885 