ITEM: TIMESTEP
0
ITEM: NUMBER OF ATOMS
196
ITEM: BOX BOUNDS pp pp pp
0.0000000000000000e+00 2.8000000000000000e+01
0.0000000000000000e+00 7.0000000000000000e+00
-1.0000000000000000e+00 1.0000000000000000e+00
ITEM: ATOMS x y vx vy 
13.5835 1.4128 -0.0347145 0.193409 
3.5291 4.9262 0.155378 0.155918 
3.9616 1.9365 0.026864 0.0959327 
13.2658 5.0727 -0.138381 -0.0753648 
5.0506 5.7877 -0.00489822 -0.0158846 
10.1167 4.7234 0.0425835 -0.0726976 
12.3433 1.0497 0.100257 0.0804133 
9.8713 1.6662 -0.13801 0.00840719 
11.712 6.5716 0.146524 0.0215181 
3.3131 5.006 -0.0745799 0.0141345 
8.4985 3.3647 -0.0195972 0.412497 
8.2465 3.3968 0.0516949 -0.0504068 
2.7099 5.8293 -0.197427 -0.217375 
1.9965 5.6383 -0.000752219 0.131164 
2.7327 4.8955 0.0257842 -0.163062 
6.0153 6.388 -0.220578 0.0559913 
2.4924 3.1398 -0.0342639 -0.0591197 
0.9224 4.81 -0.193313 0.0287 
12.6076 2.905 0.158688 0.0467066 
11.323 4.0696 -0.216641 -0.183772 
4.1474 1.3068 0.0772805 -0.0429248 
13.776 2.2981 -0.0781122 -0.069668 
0.9323 1.6306 0.193159 -0.102584 
9.5508 4.5084 -0.15432 0.0646078 
13.2684 4.1877 0.0349023 0.0608193 
2.2701 4.3651 0.0892491 -0.45095 
8.4304 1.1948 0.0176695 0.0450163 
13.9926 2.2712 -0.061056 0.0834974 
4.5415 2.7983 0.389185 -0.0427028 
4.4177 4.382 0.131591 0.00970204 
1.0723 5.6456 -0.0579606 0.0352193 
8.1571 4.047 -0.191652 0.00357251 
9.7984 2.8029 -0.019893 -0.177301 
9.8183 4.4129 0.178815 0.184022 
6.9456 1.8565 -0.0585058 0.0937163 
3.9869 1.1284 0.083793 0.154793 
4.0023 5.8003 -0.218261 -0.0946983 
4.329 4.5912 -0.0740704 -0.05485 
0.8181 1.2065 -0.15742 0.0317749 
10.5864 3.6028 0.0309099 0.156648 
11.9713 1.1522 0.103123 -0.240093 
8.0775 4.7213 0.0190203 -0.00747863 
2.9996 3.8548 -0.00885911 -0.0743599 
10.6116 2.0395 0.276849 0.0122486 
9.8715 2.0332 0.192951 0.336795 
9.2704 6.2893 -0.176529 0.0916473 
9.2196 3.1138 0.0646114 0.107858 
13.4986 0.7675 0.0734869 0.322881 
6.8155 3.2659 0.202003 -0.199702 
6.339 3.2641 -0.0618022 0.133624 
11.1505 1.0395 0.145724 0.184532 
4.6319 5.2929 -0.0859658 0.153584 
12.0767 4.0504 -0.311142 0.190933 
5.7641 1.6374 -0.0576127 -0.07925 
6.7452 2.6343 0.243327 0.0946212 
8.1845 1.3845 -0.131353 -0.194642 
9.9056 2.2995 -0.0961176 -0.109662 
0.7148 3.4071 0.104481 -0.217639 
8.5124 1.9284 -0.095103 -0.114855 
0.7063 3.1359 -0.0411144 0.189954 
1.4998 5.3149 -0.0892838 -0.0179156 
5.068 5.5457 -0.362492 0.0347221 
11.5562 0.6025 0.0743534 -0.0389773 
10.4734 2.1919 -0.0534039 0.11989 
7.8087 5.5331 0.252457 -0.205962 
11.0025 6.4671 -0.0203505 -0.122035 
10.8227 5.6328 -0.0323729 -0.0428086 
10.8862 3.7905 -0.0940752 -0.20569 
8.4708 5.8787 0.0484243 -0.169441 
4.3442 5.1526 0.0486998 0.0308464 
10.5206 3.0825 0.157631 0.0506603 
13.668 5.9794 -0.095682 0.123534 
3.6045 1.2386 0.192496 -0.0993681 
7.0546 3.5164 -0.0596835 0.0821913 
8.7398 5.3391 0.123636 0.0579301 
4.297 3.0227 0.173551 -0.0641246 
6.835 3.8325 0.00155554 0.129997 
13.6093 3.1086 0.267375 0.00872864 
12.6442 0.6627 0.0960309 0.151486 
1.9187 6.6758 0.0231739 0.0809828 
12.0038 3.8241 -0.230938 0.119913 
7.1025 2.5034 0.13751 0.348432 
5.5119 5.8695 -0.180863 0.255736 
10.856 1.6821 -0.0373077 0.107101 
12.3623 4.4671 -0.0239751 -0.248966 
12.6657 2.153 -0.201556 0.0791931 
11.6583 5.2722 0.244565 0.210897 
27.7643 0.6317 0.0223479 -0.00155075 
23.2951 1.2413 0.0596233 0.00761908 
25.7172 6.5915 -0.312325 -0.0114238 
16.5382 1.6681 -0.08432 -0.0397597 
16.2319 3.7908 -0.101233 0.0752436 
25.059 6.5568 0.0116818 0.141132 
24.9012 6.3721 -0.0916463 0.203909 
22.6163 2.838 0.0224046 0.0188232 
20.3179 6.715 0.123331 0.0917123 
16.4647 6.056 -0.0620423 -0.236719 
19.095 4.4084 0.206724 -0.121365 
27.1366 0.812 -0.264224 0.00649328 
26.9749 3.8654 -0.318713 -0.0152954 
17.5215 2.1082 -0.031648 -0.328357 
22.1467 1.2325 0.0108373 0.0261917 
15.502 4.769 0.117905 0.106992 
21.5216 3.2984 -0.0393884 -0.0935814 
14.1809 4.0611 -0.261813 0.286444 
16.5026 5.8109 0.0170755 0.121918 
21.495 6.4106 -0.0584118 -0.0856671 
24.4305 3.1158 -0.0730599 -0.143895 
14.8964 5.8077 0.1045 0.0419099 
25.1633 2.2123 0.0696573 -0.00332784 
26.3884 2.402 0.0234905 -0.0234953 
20.7459 6.3942 -0.144907 -0.0468589 
26.4582 4.8923 0.0499039 -0.0484172 
16.4913 5.1531 -0.0317453 0.130557 
20.8184 3.594 0.0829722 0.104502 
19.6305 0.8071 0.132331 -0.113957 
18.4639 4.6146 -0.0131852 0.224953 
19.9009 4.6543 0.1488 -0.164693 
16.0727 1.4258 0.0328593 -0.0206354 
14.784 3.3418 -0.021495 0.114777 
21.7906 3.4256 0.117462 -0.1219 
17.113 5.8211 0.150414 0.135432 
15.569 3.875 -0.0860299 -0.0427379 
17.7149 2.8903 -0.195028 -0.110013 
26.8064 1.1596 0.128792 0.0734376 
17.5701 3.9048 0.0411896 -0.0622746 
24.456 4.6008 0.077746 -0.180495 
24.9585 5.416 0.084955 0.121535 
26.7099 4.7833 0.148522 0.172269 
19.7634 1.2475 -0.0801471 -0.111812 
26.7351 3.6491 -0.0900552 0.0294711 
24.7533 0.5737 0.208627 0.264518 
27.6762 4.2737 0.159923 -0.151968 
14.0077 6.2572 -0.0251816 0.133069 
23.2556 0.8293 0.147548 -0.00575891 
17.2738 2.1351 0.0921796 -0.113951 
27.2796 5.3867 -0.140642 -0.299127 
27.3948 2.8149 -0.067688 -0.0689296 
14.3543 5.4432 -0.178522 -0.111397 
16.1992 1.8008 0.153945 0.214758 
27.2321 3.0947 -0.2003 -0.173603 
21.7638 5.9793 0.0834145 -0.0791239 
16.7448 4.738 0.245521 0.0484151 
16.5304 2.2457 -0.0706703 0.21247 
17.1287 4.3644 -0.110389 -0.0183624 
15.8758 0.8103 0.105512 -0.0348156 
19.695 1.5177 -0.0979897 -0.189753 
16.0609 3.4193 0.126963 -0.24997 
18.403 6.5728 -0.126082 0.121054 
21.5097 0.8177 -0.153584 -0.0406409 
21.8827 4.5415 -0.0690616 0.0731414 
25.7063 3.5897 -0.150962 0.144075 
24.294 5.2258 0.0516414 0.241275 
15.7546 3.4132 -0.207328 -0.143738 
16.9406 4.1698 0.0776222 -0.0081249 
20.1014 0.7096 0.104796 -0.120566 
14.2976 2.41 -0.0318902 -0.0584951 
19.0981 3.8393 0.0314179 -0.0886459 
18.4057 5.6679 -0.0533768 0.189511 
15.9987 0.5257 0.164151 -0.103174 
27.2099 2.4899 -0.00067727 0.141786 
23.1602 0.5178 0.0601556 -0.10724 
18.821 1.8515 0.0170537 -0.0666399 
15.9145 1.871 -0.266232 -0.0673566 
25.7622 0.9812 -0.0482616 -0.0863966 
18.5851 2.2542 0.0119365 -0.144675 
18.2251 2.9893 -0.105291 0.0618624 
14.6507 0.7164 0.0466304 0.0508316 
19.1524 0.5979 0.111282 0.0662326 
19.4988 5.0702 -0.215386 0.147196 
20.4109 5.8817 0.0161915 0.168003 
16.3467 2.6372 0.0514149 0.0898105 
22.6071 2.0074 -0.109281 0.0758261 
25.862 4.321 -0.0215575 -0.0176012 
14.6318 3.535 -0.161362 -0.186966 
18.2162 6.3383 -0.0703632 -0.00577679 
16.4771 3.4093 0.0579597 -0.0933039 
21.9513 2.5311 -0.227037 -0.0223393 
16.7097 5.8138 -0.15905 -0.349126 
25.4798 5.7636 -0.008503 -0.0837394 
14.0674 3.607 0.069767 0.177381 
24.4051 6.6783 0.129806 0.0106236 
15.6025 1.465 -0.25661 -0.20143 
16.7259 1.3421 -0.0155261 -0.0609268 
16.1889 1.2031 0.139193 -0.172344 
17.0782 2.4603 0.168766 -0.253346 
22.1402 0.7957 0.101175 -0.0718846 
23.78 4.8613 0.0955057 0.00305601 
14.722 1.6643 0.23376 -0.181338 
18.6183 5.8464 0.00715901 0.0326858 
24.5052 5.5766 0.0138313 -0.136754 
17.1749 0.6808 -0.158492 -0.012993 
23.9527 6.4623 -0.0148072 -0.0227027 
17.4015 6.7494 0.218076 0.174033 
20.6501 2.2257 0.334317 0.158114 
25.6803 5.9138 -0.0486144 -0.354564 
ITEM: TIMESTEP
5000
ITEM: NUMBER OF ATOMS
196
ITEM: BOX BOUNDS pp pp pp
0.0000000000000000e+00 2.8000000000000000e+01
0.0000000000000000e+00 7.0000000000000000e+00
-1.0000000000000000e+00 1.0000000000000000e+00
ITEM: ATOMS x y vx vy 
13.5713 1.58799 -1.3285 -0.60388 
3.26725 4.17445 -0.210729 0.534603 
4.05526 2.15065 0.496971 0.462626 
13.3444 4.94886 0.189691 -0.596987 
5.04198 5.70107 2.48746 -1.86957 
11.4077 5.00893 1.49697 1.30641 
12.961 1.48159 1.04327 1.04451 
9.95071 0.509005 2.3284 2.22671 
12.007 6.30288 0.8384 -0.899716 
3.20912 5.44287 1.04334 0.0340408 
8.74358 4.30556 1.03047 1.44897 
8.3641 3.38122 1.76474 -0.498444 
2.80022 6.28111 0.585423 2.00408 
2.1909 5.74668 0.531485 -0.838143 
2.12859 4.79489 1.08943 -0.995254 
6.30469 6.66236 1.03824 0.503297 
2.62701 3.04545 -0.287212 -1.69583 
1.04827 5.66828 0.27058 1.04424 
12.7361 3.37098 0.364253 1.75655 
11.6183 4.49131 0.545767 -0.0226349 
5.42096 1.42058 -0.446716 -2.48418 
12.9333 2.51285 0.193464 -0.0177182 
1.51677 1.05602 1.71439 -3.16505 
8.63862 4.88937 0.794137 0.594826 
13.4578 4.19361 0.639168 -0.0708601 
2.43548 4.04091 0.526839 -0.68586 
9.31141 0.546814 -0.707975 2.37315 
11.9246 5.38446 0.835585 0.337259 
6.14927 1.90165 2.85373 -1.19225 
5.27471 3.11321 0.357515 -2.90447 
1.01954 6.33852 0.190479 5.04244 
7.9201 4.38886 -1.24802 0.532725 
9.76738 3.26314 0.115875 -0.343713 
10.6731 4.56995 1.62958 2.86864 
6.96901 1.63408 0.111124 -1.15608 
4.1444 0.723156 1.18493 4.06463 
3.83992 6.52912 0.141307 -3.40995 
5.4559 3.70805 1.19274 2.53754 
0.878181 0.418618 0.5572 -1.57455 
10.8518 3.36399 1.50352 -1.67198 
11.9352 0.886986 0.898009 0.455001 
7.72505 4.85536 -2.2213 1.48364 
2.89813 3.3998 -0.0373757 -1.37068 
10.8414 2.06405 -0.911598 -0.298561 
9.77419 1.79878 0.271262 -0.319652 
9.40784 6.32979 0.627929 0.0899258 
9.25695 4.0119 0.0657786 2.26308 
13.7259 0.755189 0.883224 -0.00433698 
6.80347 3.06046 0.450556 -0.240351 
5.90218 3.55473 1.22621 0.362038 
11.2069 0.891273 -1.14636 2.57243 
4.7334 4.42882 0.364201 -1.88716 
12.6259 4.87567 1.92932 1.67038 
5.95546 1.36994 0.161511 -3.38011 
6.45266 1.54004 2.39318 -2.71196 
7.47522 2.10466 0.339753 1.10841 
9.35592 2.75431 -0.812378 -0.670469 
0.958681 4.71227 1.52149 1.46227 
8.73932 1.99333 0.72261 0.139023 
0.593912 2.06145 -0.289264 -0.175217 
1.32498 5.08036 -0.544386 -0.207119 
6.31553 5.10483 1.99865 -0.961461 
11.9338 0.525809 0.88242 -3.64978 
10.4367 2.28655 -1.72702 0.155812 
8.00832 5.4634 0.591464 0.169059 
11.1251 6.36965 0.509328 -0.186173 
10.9877 5.60253 0.549002 -0.0191052 
11.1644 4.01822 0.974613 1.2691 
8.60369 6.12349 0.436334 0.804631 
4.47383 5.43701 -0.897285 -3.57027 
11.5468 3.45607 2.8152 0.839274 
13.3004 5.97575 -1.68519 2.92344 
2.41188 0.337846 -1.14061 -1.46296 
6.46377 3.97271 -1.39528 1.59673 
9.11421 5.58485 1.14463 1.01872 
3.81906 4.05153 0.475849 1.85272 
6.89512 5.3924 0.644637 3.29798 
13.5498 2.47583 0.408259 -1.84174 
13.205 0.432056 0.973875 1.83116 
2.08476 6.31922 0.330816 0.11995 
11.441 1.9538 1.72968 -0.281607 
8.19093 2.60562 2.03402 1.12896 
5.9428 5.98051 0.721897 -0.0195969 
11.0579 1.45612 -0.65654 -1.04405 
13.0969 6.85021 0.00102087 4.0184 
12.2134 1.82959 1.72735 0.777338 
0.183288 2.68272 1.3895 -0.180279 
13.8821 5.60983 1.31555 0.841703 
0.572129 4.19259 0.946928 -1.30062 
0.1662 0.613686 1.08252 0.00545162 
17.4689 6.6037 -0.582988 2.28556 
23.7494 3.02901 0.96732 3.88986 
26.1558 6.42879 1.17325 -0.617524 
17.0528 1.58113 2.79454 3.20008 
15.9387 4.18504 0.772399 1.2694 
25.1744 6.18218 0.893134 1.79153 
24.5755 6.00508 -1.16648 -1.37886 
22.8484 2.9104 0.71762 0.264618 
20.2263 6.25886 0.265266 -1.06174 
16.1065 5.30675 -0.176427 -1.895 
19.5415 4.61756 1.29551 0.5053 
27.3106 0.331207 0.121405 -1.80549 
27.9247 3.72998 1.58789 -1.42466 
18.9119 1.47911 0.818842 -0.975748 
22.2299 1.87987 0.0218652 0.815867 
15.834 4.83918 1.51189 0.822939 
20.6139 2.70246 -0.698117 0.195301 
27.3226 6.68157 1.08311 -1.9408 
15.0567 5.21812 -1.12082 -0.570188 
21.7107 6.66105 1.06169 -0.435383 
24.5768 2.89168 0.627045 -4.03052 
15.1709 5.95787 0.735634 0.713148 
25.3676 2.20944 0.597074 -0.0465602 
26.6037 2.3407 0.942566 -0.342687 
21.1249 6.17676 0.70301 -0.684377 
26.1373 5.24107 1.5238 -0.37327 
16.4817 5.04589 0.946557 -2.72548 
20.9524 3.7851 0.540148 0.472872 
19.8412 0.671389 1.81589 -2.90287 
18.943 4.03324 -1.59406 3.77492 
20.2657 4.41133 0.974063 -0.545661 
16.1681 1.79847 0.727041 2.42823 
15.2745 3.17165 -0.5893 0.259702 
22.966 4.02871 -1.13856 -2.18658 
18.0375 5.29919 0.962587 -1.08378 
15.3266 4.43662 -0.139242 1.20243 
17.6626 2.72152 0.906018 -0.606595 
26.5011 1.60869 -0.516449 0.794835 
18.0828 3.85745 2.64139 -0.209211 
24.5008 3.33119 0.0952981 -0.944233 
24.8618 4.54206 0.86627 -1.00887 
27.9411 5.11031 2.10986 0.919415 
20.3159 1.23206 2.50123 0.747285 
25.9241 2.55898 -0.769084 -2.02991 
25.0017 0.737814 0.706413 0.359586 
20.9256 1.85888 0.771877 -2.25688 
14.5848 6.67566 1.14291 -0.352949 
23.8544 1.13877 1.98593 1.17231 
18.0293 2.09053 2.17785 0.260571 
27.2909 5.59865 -0.186102 1.64117 
23.7615 6.17469 0.0743235 -0.652787 
14.5811 5.42427 0.905571 0.379817 
16.7624 2.0312 2.27387 -0.0668873 
26.6806 4.5836 -0.633025 2.65615 
22.15 5.51606 0.905529 -1.02123 
16.9355 4.64766 -1.04505 1.27485 
16.8885 2.48824 2.00459 1.25635 
17.8237 4.2631 0.94309 -2.2129 
15.4235 0.636897 0.229437 -1.42551 
19.6645 2.82637 3.20408 -5.15212 
15.8002 3.32044 0.536472 -0.144237 
18.6573 5.7002 0.602918 -3.28381 
21.5431 0.816604 0.543453 0.111991 
22.0448 4.57807 0.606753 0.0731414 
25.779 3.61295 0.399844 -0.00729801 
24.0149 4.06459 0.232852 -3.26728 
14.8657 4.31388 -0.832521 1.35176 
17.3249 4.14445 0.774371 -0.425828 
21.0517 0.357085 1.58404 -0.296738 
14.4936 2.23411 -0.577345 -0.0608632 
19.3567 3.48782 1.42064 -0.549051 
18.929 5.14145 1.33518 0.760103 
16.3869 1.29714 -1.01121 0.834163 
27.4725 0.775504 1.49335 -2.02811 
22.922 1.17044 -0.678939 2.72811 
19.65 1.39499 -0.0348798 4.39166 
15.6596 1.54853 0.105488 -1.12282 
25.9309 0.938002 0.614405 -0.0863966 
18.8248 2.73466 1.0313 0.308207 
18.5456 3.50777 0.492287 1.84575 
14.8128 0.744096 0.195827 0.0330191 
18.8996 0.568048 -0.101231 0.0568952 
19.5412 5.39121 0.608529 0.924968 
20.4809 5.63791 0.47977 -0.963411 
16.0063 2.51685 -0.502557 -1.12229 
22.9086 2.1576 1.30926 0.651354 
26.0416 4.37984 0.53982 0.227919 
14.6442 4.79445 -0.439866 3.9537 
18.0239 5.98486 1.48404 -0.145516 
17.4958 3.54692 1.30881 -0.520346 
22.008 2.51395 0.401133 0.0818077 
17.4318 4.883 2.02228 -0.123337 
25.239 4.94261 0.259211 -4.66501 
14.0296 1.91712 -0.20832 1.15936 
24.6205 6.56326 0.149627 -2.03522 
15.1411 1.48459 -0.229874 -0.880784 
17.954 1.18434 1.9804 0.33806 
16.9568 0.869441 2.03374 -1.68335 
17.1477 3.15124 0.518024 1.02385 
22.424 0.356833 0.769979 1.54041 
23.2502 4.49707 1.36957 2.112 
14.6669 1.50044 -0.793601 -1.17122 
19.6498 6.6044 0.0563011 -2.48785 
24.2612 5.41133 0.150962 0.224045 
17.6389 0.290466 1.40496 1.43009 
14.0289 3.51762 0.571354 0.294456 
ITEM: TIMESTEP
10000
ITEM: NUMBER OF ATOMS
196
ITEM: BOX BOUNDS pp pp pp
0.0000000000000000e+00 2.8000000000000000e+01
0.0000000000000000e+00 7.0000000000000000e+00
-1.0000000000000000e+00 1.0000000000000000e+00
ITEM: ATOMS x y vx vy 
13.8938 1.35741 0.333191 0.240507 
3.2628 4.49313 0.607892 0.705284 
4.15583 2.7761 -0.380056 2.57436 
13.7868 4.7219 1.07083 -0.121755 
5.95796 5.44596 1.23676 2.77281 
11.9092 5.49996 1.02546 0.718797 
13.1429 1.65597 1.54881 -0.748464 
10.61 1.39801 -0.113888 0.572999 
12.4151 6.21039 0.563594 0.80899 
3.44294 5.32904 -0.0311252 -0.466041 
8.86682 4.6989 0.337 0.534201 
9.20688 3.60125 1.56103 1.11819 
3.2131 6.44939 0.922855 -2.01425 
2.60094 5.16374 1.05001 -1.21008 
2.61099 4.38356 0.676113 -0.653621 
6.70492 6.35758 0.626012 -0.560115 
2.44888 1.64993 0.175637 -2.8661 
1.33876 5.02259 1.17723 -4.50202 
13.0552 4.0631 1.09817 -3.89784 
12.3116 4.56092 1.3363 0.324488 
5.24641 0.265889 0.154135 -1.60374 
13.1165 2.80197 0.979886 1.59995 
1.70958 0.398479 -0.124869 0.869797 
9.04707 5.72972 0.881308 1.80973 
13.8535 4.01585 0.847243 -0.684046 
2.73848 3.63554 0.674527 -0.966173 
9.28239 1.56182 0.963484 -0.362817 
12.721 5.46647 1.79642 -0.657869 
7.03593 1.79135 1.34718 -0.110529 
5.56642 1.63183 0.777914 -2.97238 
1.07129 6.49448 0.155012 1.12453 
7.79492 4.36579 0.338956 -0.114432 
10.0279 3.23892 0.804111 0.577637 
11.1108 5.27408 0.42161 -0.0656969 
7.77562 1.40179 1.56174 -0.399343 
4.94079 2.36255 2.2394 1.96349 
4.33427 4.95208 1.35997 -2.67053 
5.6982 4.55737 -0.0240798 -1.52395 
1.39685 0.995908 1.98962 1.98905 
11.5165 2.52705 1.31765 -1.56188 
12.691 1.84662 1.85155 2.14221 
7.10713 5.83402 -0.23184 1.99026 
3.37329 3.21143 1.0969 -0.41073 
10.7069 2.78823 -0.100837 2.50935 
10.0144 1.57738 0.599663 -0.40258 
9.86798 6.57622 1.10582 0.811106 
9.91889 4.854 1.44151 1.55829 
0.748391 5.56784 0.985495 0.955122 
7.14282 2.92358 0.853593 -0.375014 
6.6742 3.42226 1.18204 -0.195367 
11.2885 0.472733 0.663912 -1.41019 
5.01481 3.47715 0.732957 -1.9186 
12.9678 4.49637 0.042188 1.30284 
6.10913 0.581546 0.174581 3.83875 
6.96167 0.565413 0.0974261 4.43565 
7.79397 2.68599 0.905001 1.11209 
9.34307 2.4787 0.519729 -0.113777 
1.01203 4.54304 0.254097 -0.720612 
9.02958 2.02166 -0.397484 1.39148 
0.722667 1.8184 0.58881 -0.697394 
2.01982 5.79544 1.50677 1.63768 
7.14894 4.6402 1.52171 -0.826174 
11.9069 1.59841 -0.680504 2.11057 
9.8775 2.63548 0.559375 0.393559 
8.34052 5.66177 0.478069 0.493376 
11.5937 6.66698 1.69521 2.38361 
11.2342 6.05213 0.0744302 0.460654 
11.3561 4.38234 0.405912 0.545584 
8.88593 6.54039 0.722492 0.72817 
4.84893 4.74101 2.16665 0.250788 
12.5779 3.80403 1.08708 0.289626 
13.5627 5.83943 1.25151 1.00833 
2.78043 0.471262 1.717 0.968638 
6.32955 4.80435 0.901796 1.40662 
9.66014 5.86743 1.25075 0.190854 
3.849 3.84116 -0.396157 -2.31696 
7.38111 6.80054 0.00530137 -1.16549 
13.4991 2.11978 0.737433 0.0771833 
13.2264 1.1029 -0.379823 0.111434 
2.31399 6.5008 0.673603 0.275691 
11.9994 2.11146 -0.002471 2.02487 
8.79572 2.78527 0.350442 0.0728895 
6.31254 5.89341 0.61741 -0.45996 
11.3021 1.67518 2.19899 1.03013 
13.0441 6.23846 0.45915 -2.81774 
12.5469 2.47385 -0.122353 1.85944 
0.827861 2.59446 1.63362 -1.05235 
0.498502 3.10899 0.459313 -0.303319 
1.08922 3.54881 1.15387 -1.16617 
0.636149 0.8697 1.07753 1.20373 
0.00995213 0.488469 -0.0850215 -0.611053 
17.5277 6.00497 0.517131 -2.35048 
23.9087 2.73772 2.36462 0.139761 
26.7709 6.19762 1.82913 0.34265 
18.4362 1.92663 1.49974 -0.366763 
16.5579 3.98871 0.297174 -0.311071 
25.7915 6.6302 1.18848 -1.49996 
24.6164 5.50442 0.705783 -1.01489 
23.2714 2.93124 0.440913 0.127214 
20.6314 5.84642 1.04956 -0.629022 
16.4581 6.13639 0.903102 2.30524 
20.4053 4.59351 1.78229 -0.544796 
27.2423 1.0921 0.0722216 2.50518 
18.2731 1.14555 0.624873 1.07937 
19.3976 1.06379 1.1234 -0.825172 
22.2649 2.01014 -0.114263 -0.0263105 
15.9812 4.89192 0.229327 0.299453 
20.6885 2.96453 1.84982 0.364306 
27.9544 6.46779 1.35158 0.846033 
15.6203 5.54129 1.00545 1.57453 
22.2631 6.16594 1.12029 -1.0729 
25.0655 0.983958 -0.0170537 -0.688986 
15.7057 6.27154 1.23183 0.528159 
25.2896 1.94652 0.0579565 -0.600738 
27.1754 2.33229 1.19366 0.167204 
21.5031 5.80712 0.804512 -0.78174 
26.2317 5.90551 -0.605647 1.28572 
16.7159 4.96235 1.37236 0.451652 
21.381 3.97058 1.31329 0.175707 
20.1783 0.926611 0.346621 2.82494 
19.0926 4.66524 1.19386 -1.17135 
20.7471 4.1367 0.945065 -0.785249 
16.7125 2.5506 0.583402 1.18654 
15.1159 3.25596 0.217069 0.313979 
22.6108 3.19974 -0.147604 -0.368723 
18.3291 4.97522 0.636558 0.0868289 
15.2373 4.3499 -0.21931 -1.22854 
18.2482 2.55981 1.16887 0.377536 
26.7005 1.57561 1.45241 -1.17517 
18.989 4.02454 1.62884 0.287945 
24.6335 2.56433 -0.00264294 -3.5986 
25.0527 3.3662 1.21217 -0.6639 
14.4183 3.63391 0.999914 0.107083 
20.7355 1.25228 0.427255 -0.195057 
26.1184 2.07904 0.0945101 0.140301 
25.5803 0.523394 2.8487 -3.51597 
21.7101 1.34117 0.762432 0.553237 
15.0463 6.67607 0.0893508 -3.23936 
24.3565 1.65554 0.143634 0.925175 
19.0504 2.1796 2.19371 0.234621 
27.3364 5.46609 0.614833 -0.456793 
23.9329 5.99004 1.06599 1.52403 
14.6913 6.12906 0.401632 -0.312813 
17.4715 2.44917 1.65206 0.521564 
27.2198 4.97227 1.16776 -1.13991 
22.646 5.11629 1.15462 -0.261271 
17.1844 4.36033 -0.312982 -0.480135 
17.6896 3.07212 0.970095 0.285726 
18.1271 4.23359 1.18792 -0.215478 
15.7885 0.459845 0.837568 1.09433 
20.8849 2.19664 2.02124 -0.260635 
16.3063 3.31248 0.933989 -0.108805 
19.0176 5.87467 1.93468 0.877729 
22.2683 0.887972 2.54884 -0.770958 
22.3948 4.50381 0.665976 -0.686815 
26.1477 3.45848 1.49591 -1.44044 
24.6615 4.40438 2.03846 -1.4804 
14.476 4.60904 -0.0751922 0.401165 
17.8948 3.51971 1.95779 -0.616178 
21.5718 0.532924 0.749613 0.519038 
14.936 2.59922 1.02238 0.833339 
20.2788 3.17611 1.26 -0.0868896 
19.6288 4.84111 0.33729 -1.18551 
16.7103 1.50035 1.32884 0.4516 
14.2944 0.404566 0.576109 -1.84585 
22.9808 2.30904 0.432808 1.70783 
19.7814 1.48695 0.634115 -1.02194 
15.9247 0.973572 0.787124 -0.911585 
26.3079 0.891219 0.858066 -0.119318 
19.3074 2.74209 0.882933 -0.436121 
19.5758 3.36076 1.16769 0.110508 
14.9513 0.518644 0.636386 -0.93438 
19.0208 0.519805 0.362498 -0.486891 
20.0793 5.25787 1.72354 -0.842853 
20.8688 4.99302 1.09166 -1.3023 
15.5747 2.68315 -0.226007 0.690014 
23.5936 2.28675 0.814061 -2.37156 
26.4624 4.4715 1.17965 0.287267 
14.338 5.3855 0.038122 0.540955 
18.5099 6.39262 0.0248717 3.12963 
18.4337 3.2626 2.18913 -0.921358 
22.226 2.86439 0.120083 0.571262 
17.6131 4.68892 -0.393763 0.352101 
25.7903 3.91941 0.282302 -0.730948 
14.4248 1.84813 1.20491 0.573988 
24.8762 6.31009 0.86294 0.247354 
15.2261 1.17886 0.391068 -0.0535461 
18.8515 1.5074 2.03406 1.05677 
17.6584 0.313771 1.1137 1.11637 
16.8766 3.67349 0.0891336 -0.110326 
22.8615 1.2551 1.0444 1.86138 
23.7554 5.53335 0.0914785 0.393328 
14.5037 1.27201 1.86142 -0.463509 
19.7385 6.28818 0.408343 1.18949 
24.2534 5.01357 -0.158078 1.98609 
14.0279 6.07314 0.398832 1.28741 
ITEM: TIMESTEP
15000
ITEM: NUMBER OF ATOMS
196
ITEM: BOX BOUNDS pp pp pp
0.0000000000000000e+00 2.8000000000000000e+01
0.0000000000000000e+00 7.0000000000000000e+00
-1.0000000000000000e+00 1.0000000000000000e+00
ITEM: ATOMS x y vx vy 
0.154866 0.500133 0.577937 0.646165 
3.77791 4.56588 1.24133 -0.395385 
4.65267 3.08021 1.46872 -0.686158 
1.67159 2.98801 0.994019 -1.19376 
5.97055 5.61221 0.116371 -0.00749111 
12.4696 5.77522 2.07623 -0.334785 
13.638 1.5873 0.418214 0.050534 
10.9891 1.49721 0.486974 -0.6105 
12.7098 6.62723 0.779006 0.506082 
3.67993 5.10726 0.772285 -1.23561 
9.15728 4.966 0.75612 0.534201 
9.83069 4.20394 0.796625 1.50468 
3.67671 5.74305 0.898014 0.622607 
3.00694 4.70467 0.602012 -0.632018 
2.92066 3.94475 0.721129 -1.07853 
6.85912 6.52084 0.503964 -1.28278 
2.6543 0.263652 0.563254 -2.03732 
2.32442 3.19637 1.80996 -3.46465 
13.6994 3.73521 0.183113 0.460045 
12.5808 4.70936 0.3291 0.654687 
5.12878 0.429984 -0.65613 -0.941633 
13.7373 2.46869 0.914612 -0.174198 
1.86531 0.865913 0.633547 0.933395 
9.5594 6.16237 1.46981 -0.538041 
0.561061 6.53683 1.0544 -0.730923 
3.0913 3.14592 0.766027 -0.961027 
9.58908 1.15831 0.30141 -0.988073 
13.3124 5.18297 0.888257 -0.536611 
7.77158 2.36308 1.73977 -0.364867 
5.94145 0.928698 1.51658 0.621659 
1.31885 6.51932 0.893836 -0.323073 
8.38228 4.16295 1.41957 -0.542948 
10.3048 3.78215 0.686599 0.971331 
11.4105 5.25977 0.70863 0.161409 
8.45997 1.19656 1.21635 -0.411988 
5.85565 2.3362 1.54285 -1.5014 
4.74458 3.67294 0.826077 -2.34193 
5.92884 3.71588 1.04356 -1.58638 
2.21659 2.07644 1.68744 2.09877 
11.5041 2.74991 0.235579 1.35052 
13.0903 2.78711 1.04056 1.36389 
7.41539 5.2342 1.19769 -2.6347 
3.59814 2.50583 0.48769 -1.9095 
11.1154 3.96376 1.30914 2.27974 
10.2841 1.5071 0.845491 0.0437457 
10.4224 6.49851 1.23502 -0.0183212 
10.6138 5.48754 1.67665 0.251144 
1.23646 6.00293 0.876094 0.101777 
7.56273 2.99579 0.784093 2.93441 
7.15909 3.45185 0.837865 0.287191 
11.6358 0.621051 0.794995 1.31872 
5.39733 3.51541 0.548275 1.3147 
13.4629 4.17059 1.10928 -2.55794 
6.60108 2.45927 1.05171 3.85212 
7.09887 1.77914 0.503192 0.784925 
8.34527 3.23143 0.88302 1.15425 
9.73998 2.56552 0.797715 0.140774 
0.855311 3.76531 0.100647 -1.63257 
8.73716 2.26384 -0.067962 0.0815595 
1.0286 1.83916 0.318118 0.780404 
2.5262 6.08651 0.707345 -0.319131 
7.52005 4.37177 0.532363 -0.400443 
12.6222 1.93127 1.55843 0.319476 
10.5683 2.78312 1.48843 0.297352 
8.63386 5.89395 0.746241 0.447692 
12.0079 6.02663 0.465657 -1.04672 
11.1764 6.09816 -0.402197 -0.312461 
11.6804 4.61257 0.867569 0.25246 
9.15979 6.67598 0.199888 -0.84623 
5.86231 4.89098 1.57472 0.322305 
12.7695 4.22197 0.664646 2.8786 
0.74377 3.01176 0.653178 -0.218772 
3.55682 0.978666 1.42849 1.0014 
6.80415 5.44899 0.530392 1.0838 
10.2931 5.98016 0.617237 0.25781 
3.83022 4.0893 0.248068 1.29275 
8.00146 6.44145 1.61859 0.247351 
1.1646 1.0001 1.00754 -0.851994 
13.2127 0.463926 0.356015 -1.45995 
2.86538 6.63928 1.39194 -1.30705 
12.5186 2.85003 -0.237244 1.31829 
8.9944 3.1256 0.876663 0.977927 
6.72447 6.10488 0.442251 -1.46606 
11.3868 1.96566 0.785019 0.695906 
13.2607 6.09846 0.573628 1.95049 
12.8177 3.50101 0.837765 0.150089 
1.60098 2.10065 1.41412 -0.511144 
0.0614758 2.01622 2.03238 1.0143 
17.9274 5.42958 1.14266 0.860898 
24.8684 2.93037 1.46308 0.439004 
27.576 6.40876 1.34431 0.454694 
18.9167 2.0629 1.06864 0.607103 
16.3627 4.40059 0.0899827 0.673294 
25.9499 6.67199 0.404548 0.157865 
25.3621 5.30273 1.45798 -0.300288 
23.8484 3.35665 1.3941 1.10699 
21.1694 5.61508 1.13022 -0.190045 
16.8486 6.49462 0.881623 -2.34671 
20.8305 4.20954 1.14911 -1.12038 
14.0711 5.97073 1.08391 0.298746 
18.5751 1.44582 0.967053 0.549523 
19.9306 0.480951 1.30252 -0.979275 
22.4836 2.08749 1.0284 0.426923 
16.2219 5.03807 0.633446 0.528693 
21.6883 2.96138 0.469948 0.383545 
14.4358 6.62979 0.186203 -2.11593 
16.3239 5.94304 1.99901 0.158187 
22.8085 5.64451 0.975804 -0.954868 
25.2187 0.650968 0.572646 -0.680508 
16.2653 6.70604 0.570243 -0.0413397 
25.5952 1.58864 1.19743 0.623928 
27.7059 2.51252 0.707334 1.11293 
21.9527 5.40747 1.00949 -0.789244 
26.6001 5.48265 1.20647 -1.76209 
17.2135 5.24339 0.57471 0.579815 
22.091 4.03717 1.21292 0.0426871 
20.7834 1.6458 1.81365 0.977437 
19.2761 4.59755 0.804901 0.333357 
21.2958 3.41339 1.30725 -1.30812 
17.1002 2.79594 0.608137 -0.752325 
15.5562 3.35044 1.35403 -0.765855 
23.025 3.5535 0.941455 0.808906 
18.7267 5.09979 0.839594 0.469644 
15.4195 4.06036 0.871686 0.904543 
18.7418 2.66552 0.755934 0.394704 
26.8434 1.40937 0.416425 0.254625 
19.4753 3.63958 0.00561936 -0.384565 
25.0446 2.10456 0.941952 0.36732 
25.6093 2.99554 1.10155 -0.944069 
14.8448 3.63785 0.983651 -0.334288 
21.4889 1.18095 1.51862 -0.187369 
26.3356 2.15488 0.624098 0.0921634 
25.9306 1.29626 0.402086 1.91496 
22.0791 1.5252 0.851021 -0.111224 
15.5458 5.72701 0.749943 -1.40295 
24.5209 0.719679 0.977962 -3.28922 
19.8862 2.32669 1.03128 0.87384 
27.768 5.6127 0.945807 0.299786 
24.4533 6.68426 0.290284 -1.82542 
14.9069 5.7843 0.841514 -0.0335868 
18.0605 2.13688 0.963369 -1.15995 
27.7648 4.01705 1.11463 -1.98897 
23.2146 5.05261 1.06633 -0.282692 
17.2354 3.99116 0.525784 -0.708016 
18.1177 3.12296 1.91945 0.0668213 
18.6958 4.37201 0.784503 0.675976 
16.0721 0.429823 0.917101 1.01511 
21.6923 2.04426 1.14916 -0.162208 
16.5456 3.32372 0.534972 0.578837 
19.7387 6.19954 0.980207 0.249189 
23.2489 0.474018 1.55421 -0.729727 
22.7747 4.09023 0.908764 -0.596277 
26.8655 2.63417 1.31073 -1.60627 
25.4399 3.68423 0.858247 -1.24566 
14.9128 4.73443 1.28994 0.12437 
18.784 3.58308 1.40454 -0.345811 
21.9897 0.775647 1.03193 0.287802 
15.1265 2.81304 0.544871 0.74336 
20.6952 3.28698 1.24481 -0.181623 
20.196 4.35779 0.80043 -0.854816 
17.3213 1.73003 1.1952 0.489112 
14.4895 0.796623 -0.193758 0.975409 
23.0609 2.768 0.27368 0.653258 
20.2194 1.75167 1.31564 0.304241 
16.6172 1.48954 1.31017 1.30861 
26.7125 0.650496 0.805313 -0.968142 
20.0335 2.9109 2.15493 0.328243 
20.1464 3.54069 1.60192 0.605739 
15.3892 0.45524 0.914935 0.671543 
19.1578 0.403322 0.263098 0.605244 
20.7827 5.0329 1.0874 -0.359171 
21.6921 4.63902 1.50156 -0.512751 
16.0381 2.97351 1.13272 0.177006 
23.8497 1.06507 0.023875 -2.15867 
26.9794 4.6098 0.950554 0.283282 
14.2449 5.14993 0.0955381 -0.55496 
18.595 5.91558 0.435251 -3.14984 
19.3545 2.99903 0.813572 -0.18481 
22.2243 2.67915 1.56109 -0.848492 
17.8683 4.48728 0.878076 -2.33524 
26.072 3.67542 1.22483 -0.447807 
14.9612 2.21558 0.942762 0.170593 
25.319 6.41005 0.774735 0.0771893 
15.8558 1.22076 1.46136 0.160289 
19.2887 1.41934 0.0129173 -0.964987 
18.1563 1.08081 0.490485 1.04705 
17.5258 3.26791 0.820547 0.257794 
23.3642 2.20323 1.02312 1.71435 
23.5502 5.71139 -0.146845 0.71654 
15.0617 0.959641 1.44764 0.0343066 
20.1311 6.67029 1.15635 -0.824014 
24.3892 5.41336 0.827196 0.39605 
14.3446 3.85393 1.35934 0.555572 
14.4551 1.3376 1.45417 -0.0549162 
14.3836 1.87327 2.85524 -2.28533 
14.0241 4.67866 0.0592427 -1.02026 
ITEM: TIMESTEP
20000
ITEM: NUMBER OF ATOMS
196
ITEM: BOX BOUNDS pp pp pp
0.0000000000000000e+00 2.8000000000000000e+01
0.0000000000000000e+00 7.0000000000000000e+00
-1.0000000000000000e+00 1.0000000000000000e+00
ITEM: ATOMS x y vx vy 
0.521474 0.866752 0.844747 0.756371 
4.41214 4.46917 1.26905 -0.402998 
5.26238 1.9643 1.1207 -2.60074 
2.10424 2.47267 0.879456 -0.658332 
6.14473 5.72279 0.495889 0.30005 
13.5113 5.59264 1.60504 -0.0493276 
13.9479 1.58505 0.761218 -0.170521 
11.3675 1.09288 0.79419 -0.857636 
12.924 6.38202 0.411367 -0.941402 
3.8666 5.61031 0.64226 0.681967 
9.5552 5.24794 0.678981 0.615445 
10.2162 5.04853 1.02287 1.63881 
4.24984 6.21368 1.76347 1.3688 
3.3442 4.40723 0.79564 -0.583564 
3.40808 3.54896 2.08543 0.684184 
7.41264 6.5929 1.22138 -0.127432 
2.87187 1.01722 1.15254 -2.77864 
2.96832 3.19531 -0.293599 0.329374 
0.254968 5.7295 0.986544 0.172236 
12.705 5.70697 1.71957 1.19873 
5.10536 0.590954 0.390805 1.10082 
0.448001 3.3782 1.97614 0.522822 
2.27467 1.31843 0.28386 0.207911 
9.97556 5.85671 0.589486 -0.676086 
1.02418 6.12216 0.917053 -0.836277 
3.79063 2.65778 1.81203 -1.07375 
9.85938 0.657479 0.731004 -0.994264 
13.8891 4.99688 1.63492 -0.320206 
8.35606 2.1479 0.546921 -0.506946 
6.61755 1.1521 1.41566 -0.782393 
1.885 6.56259 1.11531 -0.750759 
9.09674 4.21849 1.49359 1.046 
10.7766 4.15742 0.996481 0.703076 
11.8921 5.30541 1.31467 -0.152048 
9.02835 0.990568 1.07958 -0.411988 
6.50539 1.66792 0.962622 -0.10811 
5.07398 3.22541 0.763365 -0.589722 
6.47983 2.93078 0.706418 -1.72834 
2.9127 1.47117 1.56685 1.83227 
11.7865 3.46095 0.699599 1.50172 
13.6722 3.24479 1.09928 0.52914 
8.03577 4.64741 1.39178 0.627041 
3.85379 1.7383 -0.133773 0.04088 
11.4977 4.89061 0.674656 0.393159 