ITEM: TIMESTEP
0
ITEM: NUMBER OF ATOMS
1176
ITEM: BOX BOUNDS pp pp pp
0.0000000000000000e+00 2.8000000000000000e+01
0.0000000000000000e+00 7.0000000000000000e+00
-1.0000000000000000e+00 1.0000000000000000e+00
ITEM: ATOMS x y vx vy 
10.2932 4.8812 0.228264 0.0285851 
9.3368 4.723 -0.144623 -0.0546129 
2.4898 5.6484 0.0221252 -0.102732 
11.5837 1.8824 -0.0534891 -0.139603 
6.0535 5.0124 -0.00153206 0.342794 
3.5457 3.0953 0.108875 0.0113838 
7.9913 1.9463 0.133853 -0.00852567 
3.2047 1.2232 -0.0980576 0.140604 
7.6465 1.4722 0.21298 0.141703 
10.6996 3.0475 0.264072 -0.133676 
1.8695 3.0358 0.317751 -0.0835213 
0.5731 5.1217 -0.034914 0.296552 
3.4269 3.7813 -0.0853602 -0.19492 
8.9984 5.3633 0.275479 0.156613 
4.9562 4.9747 0.00891565 -0.0926926 
2.66 6.6246 -0.0260277 0.340256 
7.9836 4.1609 -0.0217961 0.108118 
3.3393 5.6787 -0.103982 0.291683 
3.7028 1.9527 -0.00506396 -0.0564183 
12.99 4.4533 -0.102912 -0.139579 
0.9634 3.6875 0.0819756 -0.0392483 
9.8774 1.4981 -0.0507791 0.147751 
6.8962 4.572 -0.000233881 0.0947398 
8.2124 2.4867 0.00907253 0.0414588 
10.65 4.7667 0.109797 0.0793841 
2.3165 1.6301 -0.00937413 -0.163359 
9.2558 2.3052 0.0237801 -0.0589792 
0.951 0.8239 -0.0986641 0.144517 
6.7065 2.5412 0.0358785 0.152179 
9.7788 4.1304 0.0698052 -0.0148812 
10.3366 1.3888 -0.183418 -0.0019489 
11.7363 6.0403 0.0259631 0.215129 
5.5383 5.4024 0.128558 0.0903762 
7.2237 2.6942 0.0238451 0.0486393 
5.4429 1.4008 -0.0757617 -0.0214444 
2.1959 5.6763 -0.102565 -0.13908 
5.6421 3.5301 -0.125367 -0.0663598 
6.412 4.2256 0.18563 0.0403309 
4.3995 2.7556 -0.157294 0.101053 
8.7009 2.0569 0.0476739 0.0213401 
4.442 4.1074 -0.119413 0.0967873 
2.0462 3.8699 0.197354 0.0584713 
13.6666 4.5541 0.137577 0.159768 
8.9217 0.901 0.176909 0.140741 
4.6235 3.9835 0.0178979 0.0087104 
4.2634 2.1396 0.00679252 -0.189914 
5.3262 5.3353 -0.251794 0.0981326 
2.1534 6.4966 0.0865708 -0.134797 
4.3668 2.9971 -0.0519092 0.113308 
11.4815 5.0642 0.00902565 0.156193 
1.5314 2.2358 -0.134181 -0.212547 
4.2773 4.4825 0.193623 -0.156695 
11.0609 4.2228 0.120421 -0.0515611 
11.1561 3.2634 -0.104216 0.164788 
7.314 0.6184 -0.171112 -0.0855256 
3.7201 2.9542 -0.108018 -0.00705259 
1.043 6.2219 -0.107505 0.0902692 
5.5981 1.909 0.48282 -0.261754 
4.9766 3.8661 -0.0116204 0.0462972 
6.0445 4.321 0.267976 -0.0621954 
4.1457 5.6751 -0.145653 0.000833535 
3.1493 4.6309 -0.158494 -0.0361098 
4.5342 5.7999 0.0182432 -0.0808443 
6.7966 0.9807 0.0687747 -0.0142768 
10.6092 3.3301 -0.080286 0.0467553 
13.4774 3.7613 0.0378985 -0.0211281 
5.9054 1.8908 -0.0387276 0.0175961 
1.2642 1.3413 0.176348 0.100125 
5.898 3.028 0.233712 -0.154383 
6.6973 3.0574 -0.00028414 0.353543 
13.7063 3.7038 -0.157401 -0.00241074 
10.952 3.5134 -0.147337 0.103564 
2.2443 3.9509 0.0643594 -0.141952 
3.444 1.719 -0.273804 0.0957953 
13.6086 0.7684 0.0723192 0.00473508 
4.7246 2.1064 -0.193579 -0.300155 
3.7115 4.0406 -0.0275366 0.0708806 
7.7477 4.326 -0.24291 0.0943068 
3.4889 6.1011 0.0157816 0.00145983 
2.7406 1.668 0.0162035 0.0883365 
8.7906 1.3066 -0.0376442 -0.107523 
8.2793 4.1297 0.017234 -0.00849284 
4.2603 0.9957 0.0222354 0.103047 
5.8222 1.6668 -0.0450581 -0.258307 
9.7588 6.5981 -0.0759297 -0.238206 
11.6332 1.1039 -0.0214467 -0.0265466 
10.023 0.9197 0.177445 -0.0587061 
5.1196 2.0154 0.0130906 0.0416018 
7.6226 6.4927 -0.18856 -0.0484124 
2.4722 4.2956 -0.0500171 -0.292258 
9.9697 6.7582 0.323046 0.236941 
10.0321 3.3885 0.234108 0.343012 
7.335 4.4027 0.157094 -0.162649 
9.9772 4.4206 -0.23919 0.0937097 
8.6308 0.7608 -0.0602419 0.306594 
6.8006 1.9407 -0.152715 -0.161998 
6.7782 0.7014 0.110436 -0.0171696 
3.7139 4.2811 0.0772219 0.0832652 
9.5874 2.8899 0.363271 -0.0846181 
11.3246 4.7122 0.267584 -0.0575107 
6.6944 6.7104 -0.0448455 0.143296 
3.1109 5.2895 -0.140335 0.0575766 
11.7206 5.0055 0.214309 0.174545 
11.5109 1.2628 0.221543 -0.0829814 
11.8274 3.0865 -0.275302 0.120163 
1.3602 6.7856 -0.040827 0.124245 
6.31 4.6559 -0.190346 -0.0415488 
12.3684 0.6577 -0.347379 0.331707 
6.4038 3.1951 -0.0700884 -0.241132 
2.8765 4.5081 -0.00334112 0.0728605 
7.9991 6.5578 -0.167832 0.122391 
12.6775 6.5043 0.0300825 -0.0362656 
1.6198 5.6818 -0.0106982 -0.0756194 
1.2313 0.624 0.0496673 -0.0974742 
12.0948 4.8654 0.0403088 0.13837 
10.6496 5.8124 0.0831451 0.141306 
12.6479 4.8277 0.0171411 -0.0136749 
7.6664 5.2858 -0.00193003 0.191717 
3.039 2.0943 0.112145 -0.00416546 
12.3221 5.1214 -0.0982758 0.103474 
6.3071 2.9651 -0.259654 -0.0705283 
10.9971 0.76 -0.000619763 0.0370784 
8.1634 0.9181 0.325873 0.0918842 
4.4365 1.1114 -0.0872274 0.113187 
11.6686 5.6706 -0.196452 -0.0085628 
3.2856 4.9936 0.0390773 -0.173413 
12.1309 0.8458 -0.0614996 0.0028418 
10.4642 1.9578 -0.0504978 -0.0157026 
4.8755 5.2687 0.0856716 -0.167006 
2.9099 3.1596 0.0113034 0.142131 
12.7095 2.62 -0.0582444 -0.00280366 
13.1874 6.2392 -0.0778579 0.020834 
9.573 4.7294 -0.0374003 -0.304559 
9.9202 0.534 -0.0526643 -0.0235759 
8.4279 1.5725 -0.0657712 0.0381953 
4.4457 6.769 -0.0554729 0.275507 
12.3547 3.7985 -0.0653535 -0.115362 
13.3302 1.5944 -0.0212984 0.145225 
5.1296 6.0815 0.159422 0.234574 
13.754 2.6826 -0.00974227 -0.259204 
6.0311 5.7094 0.0667199 0.0376245 
10.7775 5.252 0.0568917 -0.253621 
1.0806 5.3631 -0.0354801 0.155913 
8.9863 3.8773 -0.0122483 -0.00934841 
7.2263 2.144 -0.0217485 0.088513 
2.0416 4.6364 -0.0333091 -0.0640154 
1.5958 3.0264 -0.075656 -0.389641 
13.435 2.6851 0.0600768 0.289947 
9.5348 6.6829 0.173417 0.10194 
3.5448 2.5636 -0.155976 -0.00725636 
11.8027 6.2936 -0.121136 -0.195212 
8.8777 6.0231 -0.0320189 0.0669597 
10.6852 4.0531 -0.0152439 0.136382 
11.7668 0.6852 -0.269113 -0.168018 
7.0529 2.2662 0.322177 -0.139894 
8.1819 1.8858 -0.0720923 0.099427 
6.9524 4.104 -0.172209 0.0244875 
13.2696 4.2204 -0.00946921 0.180725 
8.8153 2.5865 -0.167309 0.184049 
2.6419 3.771 -0.236318 -0.0837946 
7.6565 2.9538 0.0436222 0.117295 
13.7503 5.623 -0.26788 -0.141397 
8.7738 5.778 0.0041328 0.0352691 
9.7499 2.757 -0.233309 -0.137726 
5.1163 3.2699 -0.0877699 0.0807782 
6.3876 2.2657 0.10895 0.103209 
11.6755 2.2833 0.308088 -0.0313703 
10.9907 4.8815 -0.0532756 -0.137698 
0.5962 0.6188 -0.0227742 -0.0169007 
3.9235 5.5966 -0.253355 -0.192002 
13.9571 0.9149 -0.0900157 0.0171337 
3.7241 4.7821 0.559526 -0.0842563 
3.8746 1.2981 -0.0993089 -0.0857633 
5.5263 1.1353 0.138861 0.0573897 
1.8211 5.2567 -0.102512 -0.0594334 
2.2121 3.6285 0.010088 0.291848 
10.1093 5.4601 0.0522925 -0.0400477 
10.91 4.3899 0.256365 0.0687544 
4.3636 4.9788 -0.265429 -0.100195 
9.7702 4.4948 0.00712588 -0.156089 
3.4675 4.2845 0.106234 0.0951717 
3.0722 3.3294 -0.042617 -0.0460437 
12.124 3.8661 -0.167411 -0.261114 
13.4524 1.4138 0.0352004 0.122552 
4.2683 3.4006 0.176435 -0.00185402 
11.8354 1.8725 -0.0694791 -0.0161275 
4.6104 6.091 0.0203739 -0.170319 
11.962 5.8389 -0.25794 0.302078 
9.9388 6.5 0.0622313 0.0174162 
7.2069 1.2313 0.0329204 0.0732832 
0.708 6.038 -0.1129 -0.143029 
10.9763 2.0642 -0.0923039 -0.0493083 
10.5447 0.8582 0.166463 0.0197446 
7.2241 5.9877 0.0568704 -0.0207578 
5.1245 2.6898 0.029584 0.072747 
12.8051 1.1084 0.0045055 -0.0469137 
0.5785 3.6612 -0.0951386 0.0727282 
4.2458 2.4405 -0.124401 -0.059485 
9.1705 2.4968 0.151922 -0.0926014 
3.1839 6.0431 -0.0467138 -0.0704254 
3.1462 5.8183 -0.163503 -0.15415 
8.0497 5.1483 -0.0158628 0.136687 
12.7005 0.9231 -0.19417 -0.00630226 
9.5002 1.5626 -0.129196 -0.145945 
12.8212 2.3239 -0.123313 -0.015672 
0.8216 2.7514 0.04116 0.219709 
12.7771 1.8488 -0.0666548 -0.280976 
13.8923 1.2029 -0.0974738 0.29443 
9.5594 5.0079 -0.0669883 -0.238783 
2.5108 6.316 -0.297098 -0.0992526 
6.3675 1.9714 0.0108463 -0.0943822 
11.4691 6.6689 0.0427518 0.0348929 
11.7003 3.2907 -0.0289425 0.192528 
6.3095 1.259 0.182662 -0.107734 
7.5269 3.7122 0.209436 -0.150915 
2.3804 1.8222 -0.0754724 0.207513 
8.0357 6.2316 -0.238403 -0.0520249 
3.9101 6.6937 -0.105514 0.185284 
6.0537 5.2137 -0.158971 -0.210062 
9.1618 4.0753 -0.00663131 0.0792278 
5.2514 4.8897 0.0132804 -0.115617 
11.2347 1.2023 0.0074102 0.185342 
11.0799 6.2858 0.0420209 0.0977179 
5.4632 4.7573 0.0290064 0.275748 
4.2219 3.2038 0.234306 0.0788317 
11.0147 5.7957 0.204467 0.179693 
5.8552 3.889 0.187476 0.00487584 
10.1309 1.8903 0.147335 0.248166 
10.5322 4.5059 -0.178372 0.0314221 
3.9158 2.62 -0.135918 -0.00219072 
9.419 4.0555 -0.00307171 0.0384053 
5.4867 2.8514 -0.232094 -0.148743 
2.3188 6.0038 -0.0114483 0.109399 
0.5713 2.1276 -0.0919419 -0.0275734 
1.7022 4.4907 0.0579283 -0.0707354 
9.8176 1.9802 0.144187 0.0184521 
5.9397 6.3729 -0.201111 -0.0286795 
12.2249 5.6106 -0.131923 -0.103459 
5.9808 5.5028 -0.124167 -0.260109 
3.1041 1.7449 -0.182231 0.186679 
4.1539 0.7802 -0.180861 -0.12466 
3.0869 2.5828 0.041353 -0.190752 
12.3715 4.5755 -0.13082 -0.0095654 
6.0296 4.5473 -0.0824284 -0.0437988 
8.981 5.7901 0.160645 -0.191111 
7.0072 1.0585 0.00464293 0.0932459 
0.6282 5.665 -0.157678 -0.222956 
6.7702 5.7191 -0.00785952 -0.193612 
2.0292 4.9216 -0.0453018 -0.206287 
3.0108 0.6255 -0.120182 -0.098807 
2.8492 6.183 0.0971391 -0.0831476 
8.4164 3.8777 -0.0343415 -0.118655 
13.2312 0.8779 0.0557852 -0.0128266 
2.7282 1.3419 -0.153647 -0.320532 
1.9934 4.2911 0.0885957 -0.0727417 
5.5309 4.298 -0.203522 0.0153555 
13.3557 3.4135 -0.293327 -0.0110797 
9.5194 6.0494 -0.0645497 -0.0735435 
0.8909 2.9561 0.0033552 0.11385 
10.7508 2.0923 0.223927 -0.0968402 
4.9954 5.794 -0.0337907 -0.0767156 
13.5027 4.9113 -0.0454295 0.0275837 
9.0215 1.2953 -0.0456445 -0.11392 
6.7009 3.9948 -0.0304557 -0.0313874 
2.8404 2.3983 -0.147111 -0.274254 
8.1776 3.6701 0.131743 0.246503 
7.4603 3.3142 -0.117554 0.0356331 
10.3312 0.7666 -0.116573 0.0204148 
6.5612 1.486 0.110322 -0.0124934 
12.6267 5.3008 -0.258656 0.0382148 
6.8046 6.3878 0.132094 0.00630762 
13.431 3.0847 0.177301 0.0323787 
1.1044 3.0851 0.015331 0.138771 
9.1807 4.5224 -0.194994 -0.106813 
12.1567 2.0018 0.10397 0.0351891 
2.6734 1.8833 -0.0138407 0.107691 
10.3075 6.1142 0.198005 -0.122368 
2.8759 5.7016 0.0323769 -0.0808932 
1.4847 5.0874 0.238893 -0.31737 
2.158 3.3392 -0.0539524 0.0840534 
4.7937 0.7364 -0.167985 -0.125196 
12.7515 1.4997 0.127051 -0.244978 
9.8462 5.7933 -0.0222343 -0.17866 
7.3234 6.3118 -9.63176e-05 0.0619462 
7.9056 3.8078 -0.0439018 0.0179475 
1.6273 1.7334 0.16217 -0.0336872 
5.7252 5.6182 0.00883214 0.03811 
13.9062 4.2078 0.0207052 -0.0250824 
5.8244 5.005 -0.04789 0.137727 
7.3731 1.9563 -0.0135756 0.0613516 
4.0493 3.3347 0.114156 0.28449 
9.0302 1.7369 -0.107087 0.00785594 
6.1485 5.922 0.070404 0.170856 
9.4777 3.2356 -0.10351 -0.106414 
13.0404 2.1634 0.101264 -0.334151 
12.3917 3.0526 0.156086 0.0751143 
8.84 5.2095 -0.069053 0.103695 
10.8627 1.3737 -0.0395399 -0.0287946 
8.9825 4.2727 0.0165136 -0.0706843 
5.7038 5.9637 0.0679046 0.22236 
3.0501 6.6741 0.0694719 0.00593498 
7.259 2.9188 0.0583873 0.177736 
9.0385 4.7382 0.358111 -0.0891053 
13.946 3.7466 0.343973 0.193455 
8.246 4.8538 0.0195038 -0.159796 
7.3212 5.2751 0.144964 0.254808 
6.0469 2.2912 0.120872 -0.153409 
4.7619 5.5082 -0.1296 0.137101 
2.5607 2.6511 -0.0761761 -0.0232688 
9.4067 3.8522 -0.0599108 0.136049 
9.4294 6.2848 0.0991552 -0.109692 
1.4434 0.9085 -0.13598 -0.116844 
13.9427 3.1956 -0.0442175 0.0493122 
10.6036 2.8318 -0.10425 -0.238944 
1.8603 5.0456 0.0494976 0.266881 
9.8269 3.2769 0.0553874 -0.134541 
4.6556 1.1392 0.102725 -0.121022 
1.3646 6.268 -0.0747541 0.187787 
5.2035 1.7839 0.213539 0.250333 
7.6559 6.2155 0.289423 -0.0130362 
6.9816 0.788 -0.0603523 -0.0698395 
6.4821 5.1301 -0.0156723 0.219477 
11.1207 4.5204 0.126488 -0.00960532 
0.7994 3.8683 0.305888 0.0071909 
3.8036 5.7755 0.0564636 -0.111151 
12.8564 0.7973 0.217218 0.0400355 
6.48 2.5775 -0.093848 0.0409176 
12.9949 1.0184 0.0502971 0.166743 
12.0894 5.4467 -0.188188 -0.00444532 
1.3491 5.6246 0.200433 0.263192 
13.3846 2.469 -0.0784558 0.0810492 
8.5316 5.2007 -0.057263 0.00366428 
4.7786 1.8325 0.0295503 0.038999 
6.9922 5.9213 -0.114436 0.1431 
5.8654 4.2173 -0.122089 -0.0302078 
13.6899 5.1288 0.0183178 0.177287 
9.0687 3.2052 -0.145835 0.00199557 
7.7086 2.5192 0.260265 0.0467671 
12.964 1.757 -0.194676 -0.142268 
12.2009 1.2285 0.0723056 -0.00622758 
13.5517 2.1169 0.27944 0.0109952 
1.7827 2.4673 0.301926 0.0733706 
4.5445 2.2212 0.0328984 0.0299331 
0.5538 1.8404 -0.110103 -0.0954453 
10.0312 4.6485 0.263737 0.105843 
10.8741 2.8546 -0.0387278 -0.110053 
4.6056 5.3223 -0.231903 0.110876 
3.3348 0.6202 -0.0457117 -0.184865 
7.3847 3.9543 -0.114337 0.0348703 
4.7952 4.3698 0.023079 -0.104104 
3.7716 5.1185 0.0110441 0.0394917 
11.6479 2.9805 0.137933 0.0664076 
6.6312 4.4734 0.0202284 0.0575809 
5.4134 4.5319 -0.191998 0.0511722 
12.8905 2.7397 0.214919 0.00158147 
2.8792 3.556 -0.0590945 0.0585246 
1.1126 4.0673 -0.152487 -0.149668 
13.1942 1.4408 -0.178196 0.0850067 
12.7102 4.0615 0.182442 0.0629605 
3.2009 1.0156 -0.18402 -0.225281 
4.3098 6.2544 0.110256 0.0472273 
0.8467 6.2895 -0.110588 -0.184509 
5.5149 4.0466 0.189997 0.148018 
5.6802 1.4006 -0.0617035 -0.120622 
11.363 2.0042 -0.0497969 -0.0511857 
5.1032 4.6348 -0.283628 -0.183862 
0.6875 3.2716 -0.0982877 0.0454802 
12.5294 3.52 0.0564891 0.0531145 
8.7994 1.688 0.00427147 -0.12759 
2.2322 4.434 0.0619987 0.0140601 
13.9683 0.6833 0.0457423 -0.153291 
1.6456 6.4919 -0.287756 0.0151991 
1.9927 1.1862 -0.0455435 0.144832 
1.892 6.5982 0.156481 0.140736 
10.8854 1.6956 -0.0293141 -0.0645302 
12.3658 1.4301 0.0174668 0.0989714 
9.9456 3.5944 0.0668487 0.292729 
9.4833 2.5254 0.0643119 -0.140627 
2.4552 4.5032 0.117222 0.333346 
11.4719 3.846 -0.108229 -0.0908477 
1.471 3.3388 -0.0142364 -0.105273 
4.5436 1.3173 0.11369 0.065057 
13.838 1.5269 0.253301 0.090202 
0.8142 0.6391 -0.104509 -0.0812831 
5.9911 4.7912 0.0518109 -0.0743444 
8.428 4.715 0.111445 0.000923657 
1.2788 2.6598 -0.0355847 -0.258034 
10.4468 2.3191 0.0730243 -0.0237817 
8.3292 3.1307 0.175074 -0.035767 
8.7668 4.1495 0.192519 -0.0544172 
12.7067 5.7727 0.204659 -0.0389562 
10.3101 6.597 0.239064 -0.00808289 
0.6388 4.1807 0.00267931 0.124132 
11.9498 3.4015 0.12374 -0.0717013 
5.7379 0.8924 0.143674 -0.0532937 
6.7239 4.9239 -0.108924 -0.146295 
3.5976 5.7067 0.026462 0.0772468 
8.7877 2.2475 0.0637283 0.241063 
10.4789 4.0664 0.0100404 0.141628 
5.1776 2.2486 -0.0841841 0.192186 
11.9242 2.61 0.175585 0.177848 
6.0204 6.6587 0.0215726 0.092046 
2.7921 0.9849 0.128534 0.106334 
3.7973 6.4309 -0.132556 0.261615 
11.2416 6.6624 -0.392314 0.10742 
7.2278 3.5356 0.0129365 -0.106369 
9.255 0.5044 -0.183673 0.0643006 
0.7403 4.8967 0.235635 -0.0593177 
1.0234 5.7719 0.240675 -0.0573042 
7.1634 6.6988 -0.0237622 0.0171334 
8.4104 4.3898 -0.072905 0.0552883 
7.4943 5.6429 0.0280426 -0.0771761 
9.7036 0.5366 -0.134237 -0.016594 
0.6437 6.255 -0.0540937 -0.134624 
10.2099 4.0139 0.0393499 -0.0100037 
8.7312 3.403 0.0220685 0.0846197 
11.9062 6.6496 0.0876649 0.00199634 
8.7868 2.8151 0.127181 0.138083 
1.9511 0.9732 -0.144775 0.255619 
13.3129 5.1193 -0.142992 -0.0477748 
5.6995 6.5906 -0.0341405 -0.0056865 
3.0864 3.6018 0.0415445 -0.0237058 
6.5714 1.2858 0.0609961 0.189392 
10.0013 5.2661 0.18336 -0.0329238 
8.3312 2.177 0.154898 -0.0176263 
4.5276 0.6771 -0.288323 -0.082873 
3.9934 6.1918 -0.0810158 0.25992 
10.0465 2.9478 0.146785 0.242255 
4.8798 6.5875 0.0754961 0.13813 
8.1353 0.5203 0.12103 -0.0425546 
2.6791 4.7541 0.326655 0.235172 
8.4454 2.5897 -0.30755 0.163348 
1.3849 1.8867 -0.0230769 -0.387894 
10.2328 0.951 -0.0900786 -0.0469562 
3.9031 4.1768 0.0679505 0.0248283 
4.6045 2.6097 0.0584534 0.0338106 
3.1309 1.4964 0.10304 0.038651 
10.9821 2.5771 0.246418 0.0520391 
1.2553 5.0426 0.138496 -0.0120929 
1.2535 1.5648 -0.0707102 -0.430005 
8.0217 4.9072 0.16564 -0.0511289 
6.9349 3.3829 0.257898 0.0608806 
6.1313 3.8844 0.141838 -0.0808982 
8.9332 6.731 0.0528471 -0.00064911 
3.2411 3.1154 -0.0144256 -0.296432 
7.7172 4.9335 -0.0223311 0.0493412 
1.3786 6.4865 0.148273 -0.152704 
4.3896 5.4971 -0.0725529 -0.0648565 
9.9749 6.2937 0.152873 -0.00197 
4.5677 0.9397 0.0265038 -0.115959 
1.9175 1.6115 0.284131 -0.240756 
10.7781 0.9283 0.000207471 -0.0625994 
3.7368 3.8283 -0.0438104 -0.16711 
7.8056 3.1639 0.0908787 0.276904 
8.6662 5.4526 -0.0219357 0.0441589 
12.2185 6.7883 0.0545165 -0.158366 
3.5853 0.6546 0.00833432 0.257962 
2.7949 4.9676 0.198364 -0.0611426 
2.4592 3.6377 0.11669 -0.240948 
1.3279 3.502 0.0761049 -0.173739 
12.837 0.5016 -0.0370281 -0.0601627 
5.1054 0.7467 0.10813 -0.191009 
11.368 3.5664 0.152983 -0.340139 
0.5213 6.7902 -0.11905 0.153059 
11.4661 3.13 -0.147962 0.27683 
10.898 6.5354 0.149061 0.211361 
13.9922 5.6227 0.013285 -0.0529431 
3.4729 6.4367 0.016279 -0.0897484 
8.6555 6.406 -0.220831 0.0253215 
12.9664 5.9033 0.00113759 -0.180737 
2.1297 2.995 0.023845 -0.074724 
2.9717 4.2237 0.221841 0.0651783 
0.9224 1.9706 -0.0750892 -0.0819096 
10.2305 1.6036 -0.0232583 -6.78546e-05 
1.179 2.2907 -0.0775028 0.025418 
5.5579 2.6538 0.00122663 -0.156472 
9.0845 5.178 -0.185179 -0.28016 
10.5909 0.6467 0.223583 0.18057 
11.71 4.0889 -0.00830878 -0.024172 
12.2085 1.6714 0.0131267 -0.0726822 
9.1165 0.9743 -0.0214923 -0.0416047 
10.7586 2.4608 -0.0638979 -0.0258419 
7.7729 5.5601 0.041564 0.027159 
13.0875 5.3471 0.127505 0.090018 
3.865 1.7822 -0.304528 -0.0166609 
13.2223 4.5999 0.00933988 0.0761394 
4.5275 1.6296 0.108299 -0.171041 
12.6059 3.3329 -0.127037 -0.0541107 
13.9029 2.2254 -0.125821 0.000746183 
5.8525 5.2672 0.117894 0.155117 
4.2523 4.1737 0.226133 0.228242 
10.4539 5.7072 -0.13586 0.135916 
13.0251 2.5737 0.00377546 0.026618 
13.3483 1.0966 -0.00384042 -0.0169112 
11.4113 5.4193 -0.1199 -0.0729866 
12.4291 5.3383 0.054855 -0.0886889 
10.4948 6.4027 0.0241396 -0.111083 
6.1427 1.9844 -0.155645 6.95202e-05 
12.1768 6.4499 0.000647532 0.0651652 
5.3587 1.9234 0.0714083 -0.0738666 
9.1542 1.9635 -0.141928 0.0281753 
6.2053 1.4626 0.0126234 0.10552 
9.4185 3.4799 -0.215254 -0.0544729 
8.0858 1.1348 0.315944 0.051528 
6.5775 3.5161 -0.199529 -0.23258 
11.221 2.763 -0.101375 0.0564896 
5.0242 1.6863 0.114516 0.15736 
9.2534 1.6797 -0.223149 0.0838007 
4.866 3.4911 0.1043 -0.0330496 
1.8069 6.0687 -0.161075 -0.0307968 
12.3269 2.5608 -0.265718 -0.21064 
5.9767 2.0988 0.0289079 -0.110614 
2.0194 2.7155 0.210721 -0.0321401 
13.5487 1.0637 0.222879 -0.186992 
7.8261 1.3162 0.0979249 0.219506 
2.2641 2.3329 -0.00967064 -0.103458 
13.7932 6.1166 0.229009 0.077223 
7.7891 2.7068 -0.0907269 -0.0659269 
11.7229 4.594 -0.175621 -0.0518167 
3.4084 2.0758 -0.113375 -0.114718 
12.1514 5.9072 -0.126964 -0.131526 
7.0894 1.4281 -0.0437023 0.181572 
3.2086 3.7694 0.0445318 0.0182828 
8.4084 6.6802 -0.093421 0.00994172 
11.2524 5.9553 -0.106183 -0.18107 
13.5776 3.4088 -0.0709778 0.0177706 
4.3808 0.5036 -0.000949898 0.204711 
12.972 6.3647 0.0553686 0.0714252 
6.4382 0.6001 0.0668578 0.0919745 
13.5963 3.9901 -0.151794 0.0464329 
5.9862 0.7284 0.172756 0.0415826 
11.49 0.704 -0.440752 -0.21662 
12.4222 1.6733 0.0254948 0.240121 
3.376 5.4546 0.0441433 -0.035078 
9.6119 5.7265 -0.03019 -0.219216 
9.7332 6.0418 -0.142159 0.119287 
3.0465 2.9487 -0.123051 0.0457739 
4.004 4.6244 0.00805015 -0.0308861 
3.3351 4.1147 0.0476829 0.1528 
0.6606 1.6442 0.00515386 -0.058422 
11.1437 5.1825 -0.232969 -0.223288 
4.3561 4.7085 -0.122322 0.195108 
12.9394 3.5415 -0.0214501 0.0485041 
1.7276 0.7525 -0.0980546 0.0260004 
1.5454 3.9887 -0.0680849 0.0109859 
9.3035 5.8877 -0.12994 0.188634 
9.3628 5.6114 -0.244934 0.0331086 
2.5933 0.6903 -0.127373 0.147001 
8.3663 1.2072 0.0133996 0.131651 
3.225 2.2833 0.115853 -0.179045 
5.6598 0.6645 -0.038339 -0.173272 
9.9392 3.9881 -0.117281 0.129589 
3.9215 0.7485 0.109582 0.0905687 
6.1803 5.3903 -0.0819999 0.215628 
2.272 0.6802 -0.00614945 0.105623 
12.1715 6.2057 -0.270038 0.118618 
2.5191 1.1455 0.244032 0.0465131 
13.5804 2.3692 -0.0290913 0.138488 
3.9482 3.0887 -0.0500833 -0.154944 
4.6238 4.8369 -0.172567 0.00369407 
5.7566 4.6475 -0.0401266 0.264971 
4.0327 3.7139 0.0101715 -0.0235461 
4.1049 6.4404 0.0839276 0.0691663 
2.3108 2.5506 0.0362319 0.0737656 
1.4979 0.675 0.077675 -0.172609 
5.6031 1.673 -0.109362 -0.134889 
2.6323 5.8795 -0.300716 -0.214287 
6.2865 6.5158 0.0854212 -0.0652618 
2.0876 6.0211 -0.130047 -0.127837 
10.631 1.6629 -0.166599 -0.161983 
6.4847 5.9644 0.0931459 -0.0790866 
20.5043 3.0712 -0.117026 -0.231323 
27.624 1.0358 -0.00630787 0.336064 
14.1166 2.8305 -0.241496 0.0802854 
18.3668 5.7274 -0.0143224 0.0239777 
14.5075 3.404 -0.300253 -0.0213943 
25.0689 6.4686 0.0994143 -0.303876 
19.6173 1.5876 -0.0626106 -0.0113696 
15.4239 6.1069 -0.0997165 -0.2605 
16.8179 3.2519 0.157442 -0.0503653 
16.0843 6.4275 -0.0863245 -0.0470512 
26.1794 5.4081 0.0725861 -0.0133195 
26.2201 1.3282 -0.170118 -0.187132 
22.0585 3.7246 -0.174136 -0.114945 
24.8909 4.5496 0.239109 0.0400681 
23.5855 1.1178 -0.04882 -0.0179242 
19.2851 3.6548 -0.108262 0.086704 
17.5745 1.8975 -0.0495978 -0.17145 
15.3739 3.9061 0.00353141 -0.189173 
16.0222 3.4973 0.191889 0.00918183 
15.6965 3.5151 0.126429 0.0380451 
23.9989 6.1825 0.0176298 -0.0495265 
21.4768 3.3778 -0.0474365 0.332657 
20.578 5.0382 -0.0426707 -0.187646 
25.0266 6.7624 0.0980267 -0.143834 
22.938 2.4987 -0.00359747 -0.203701 
17.8013 1.1731 -0.172456 0.126538 
27.8 4.8493 0.0600931 0.0547155 
24.5709 0.6284 -0.195399 0.195396 
22.2824 4.3257 0.119102 -0.0589033 
27.4628 1.437 -0.142743 -0.298472 
26.1056 0.8334 -0.225844 0.064734 
15.3532 2.8616 0.0452898 0.115984 
16.3142 4.2719 -0.0621171 0.165848 
19.0181 6.2159 0.230414 -0.211916 
24.4997 6.472 -0.0872092 0.0729564 
27.6668 2.0687 0.0327464 0.0426961 
23.4206 1.3869 -0.0253538 -0.0669719 
19.2197 1.0608 0.0144182 -0.216322 
22.8016 6.7356 0.0923331 0.177168 
26.0733 1.7939 0.130332 0.0519541 
20.6859 4.6572 -0.258497 0.168954 
23.1368 2.5974 0.282456 -0.00515725 
22.9378 4.6644 -0.0934447 -0.182272 
19.7061 3.8293 0.1512 -0.11214 
24.1346 3.2688 -0.123837 -0.169044 
21.052 3.0281 -0.094974 0.105035 
14.1415 5.7749 0.0840439 -0.0345808 
25.9071 5.4131 -0.327402 -0.212429 
15.0202 6.3437 -0.123725 0.0434329 
16.6857 6.3395 -0.136339 0.0239237 
23.349 4.6644 0.425265 0.0830433 
17.0721 5.9631 0.129023 0.350718 
15.8299 2.5837 0.0717536 -0.120244 
15.7528 4.7418 -0.00242278 -0.152064 
15.9928 6.1663 -0.167497 0.134535 
23.5181 3.2223 0.0950202 0.0676788 
16.92 5.1672 -0.191246 0.0116526 
16.2885 3.3059 -0.214551 0.0280742 
22.5619 2.5328 -0.154758 0.100135 
23.5537 6.1492 -0.244557 0.079563 
23.8176 2.6214 0.114698 0.148983 
18.0753 3.4123 0.0415731 -0.189308 
26.7882 3.4515 0.122892 0.052195 
20.8347 5.5577 0.276365 0.09204 
17.6138 0.7488 0.017957 0.205875 
16.6499 2.4217 -0.0746439 0.0363981 
19.6146 2.6466 -0.255336 0.0376537 
15.548 0.7671 0.148544 -0.228276 
16.5257 3.4278 0.0596945 0.10966 
26.6522 5.7367 -0.208283 0.129478 
15.6107 1.929 0.0537891 -0.247026 
26.4127 6.7202 -0.0159 0.193311 
24.9977 3.0893 0.0965234 0.15372 
21.4737 2.0801 0.0793809 -0.133405 
22.1938 4.6513 0.0237147 -0.220585 
18.7131 4.6944 -0.105433 0.00763058 
26.7104 6.3614 -0.134888 -0.134216 
20.5455 1.0142 -0.186296 0.164708 
14.7609 1.3551 0.0217093 -0.0254132 
23.3027 3.89 0.084075 -0.0460771 
14.4238 1.2021 0.393815 0.15039 
23.4704 0.8684 0.254938 -0.14088 
22.5666 0.504 0.0153849 -0.259232 
23.3919 2.4918 -0.162263 -0.0443101 
16.1652 1.4269 -0.117142 -0.0488274 
27.3688 3.742 0.0588651 0.300513 
18.2612 4.7764 -0.176041 -0.0645893 
26.6794 5.5168 0.122462 0.221467 
22.9673 0.9098 0.20122 0.148625 
22.0341 4.448 -0.0804408 -0.17399 
24.6387 5.6903 -0.000813271 0.00943313 
27.1014 1.4531 0.134305 -0.215307 
25.3733 5.7775 0.0304794 0.207279 
27.0282 6.6698 0.0703541 -0.0685918 
17.5471 6.2263 -0.0451638 -0.0890857 
21.3869 2.7819 0.0561798 -0.26566 
15.3904 1.229 -0.0117497 -0.0582494 
16.6933 0.9919 0.0625795 -0.0411003 
22.755 3.7491 0.0274916 0.0672264 
17.8996 5.2981 0.0124854 -0.21561 
16.7853 1.562 -0.0560026 0.0550933 
16.8607 3.9255 -0.0096794 -0.274571 
18.8809 5.5574 -0.137281 0.0171496 
16.9195 1.0536 0.0108427 0.126471 
14.5916 4.4864 0.10031 -0.208593 
27.4354 5.2099 0.164886 0.0510115 
14.9301 6.6221 -0.0576794 -0.0437804 
23.5394 4.5151 -0.067585 -0.223984 
21.4406 1.1656 -0.0606474 -0.0268531 
26.8839 1.7151 -0.185307 -0.0290807 
23.1271 5.1973 -0.0873197 -0.232677 
20.0484 0.5948 0.298561 -0.174891 
15.858 5.4166 -0.0301375 0.172985 
21.8819 6.5741 -0.0546011 -0.0893675 
15.6673 4.4618 0.313556 -0.190821 
16.2399 5.5933 0.106734 -0.227683 
19.8319 0.8128 0.0222853 -0.0510787 
15.7841 4.2247 -0.115391 0.112116 
26.9453 0.9266 -0.0774583 -0.0827375 
22.3392 3.5775 0.015791 -0.100746 
16.5756 1.5588 -0.0857708 -0.0215185 
24.7351 2.1625 0.0989335 0.161635 
20.0048 1.7009 0.174049 0.088165 
25.2992 0.5188 -0.183854 0.0133178 
17.1186 0.7386 -0.00844875 0.0561816 
20.9104 3.6055 0.256959 -0.0187518 
19.6396 5.778 -0.140026 -0.0783216 
20.1718 5.9853 0.0940551 -0.173583 
26.2419 4.2537 0.103119 0.125446 
18.7444 2.6465 0.278827 -0.0552999 
19.2471 0.5783 0.0207908 -0.307209 
17.1822 2.4438 0.00827327 0.0797954 
24.7916 4.8385 0.190525 -0.230132 
17.4748 6.4238 0.0567815 0.106355 
17.7778 5.0059 -0.0317173 0.162719 
26.1964 5.8358 0.0848269 0.0677341 
14.4052 5.3628 -0.0358281 -0.00778511 
16.8516 2.2951 0.116812 -0.0426562 
21.928 3.3726 -0.137678 -0.169576 
24.3507 4.4132 -0.00392653 0.0137975 
24.9679 5.7673 -0.0960249 -0.00726647 
18.7878 4.1806 -0.0466203 0.0055511 
18.8937 0.9022 -0.199278 -0.00228072 
19.5863 4.8652 0.291092 0.104797 
25.5318 2.6942 -0.222314 0.0454721 
25.5874 0.6808 0.169653 0.239038 
15.1271 3.9543 -0.1588 0.137573 
18.4844 3.6866 -0.223838 0.237088 
18.3913 4.4954 -0.161844 -0.0219911 
25.7326 2.8159 -0.142446 -0.130305 
20.873 4.381 0.11988 -0.10596 
21.7667 2.7782 -0.0777848 0.0247144 
23.056 6.2306 0.14282 0.0193192 
23.0402 1.8232 -0.0324133 0.226334 
22.1486 3.0009 -0.09323 0.215247 
21.6166 6.7601 -0.00108276 -0.216666 
21.6781 5.7445 -0.0673214 -0.0670354 
21.1193 5.0115 0.0583601 0.0570317 
17.9367 2.0456 0.160902 0.212395 
27.7075 1.7968 -0.00542301 -0.0160181 
14.2225 6.5278 0.0264817 -0.0564723 
16.8495 1.9659 0.123287 -0.137168 
14.8923 4.4382 0.0728261 -0.242048 
22.7178 3.9894 -0.0450034 0.0901146 
20.3434 5.2307 -0.00794331 -0.0939749 
24.5719 2.3429 0.0467047 0.000252962 
14.6316 5.0886 -0.0348858 0.0305713 
20.8623 3.1329 -0.077808 -0.0455783 
21.041 5.5777 -0.0744179 0.276281 
21.6041 2.5355 -0.0397239 -0.0517167 
24.3335 6.358 0.198043 -0.0278413 
21.5404 0.527 -0.0197442 -0.0932575 
23.682 0.8184 -0.211816 0.087145 
23.4302 2.0806 0.00385655 -0.120297 
21.4209 6.2539 -0.378471 -0.120866 
18.9649 1.194 -0.0137981 0.0561071 
25.5835 4.7437 0.0145536 0.267758 
26.4971 5.0914 -0.227656 0.0304179 
15.2986 5.3152 0.0118477 0.0725047 
15.1482 2.3418 0.0158578 -0.0394502 
15.8834 5.7139 -0.0132928 0.0195866 
15.4439 4.2282 0.0690349 0.119128 
14.9506 1.8832 0.161471 -0.0416276 
14.3737 6.2332 0.13521 0.0655426 
16.7582 5.4669 -0.08073 -0.0783511 
25.9121 3.5246 -0.19066 0.135736 
20.1079 0.9688 -0.155644 -0.0226557 
26.8684 5.9256 -0.00556056 0.00867713 
21.8935 1.2 -0.032984 -0.0596695 
19.5793 1.3465 0.0317953 -0.170272 
25.611 1.9787 -0.103173 0.156581 
14.5917 6.2936 0.0107288 -0.141668 
16.2333 5.8339 0.051547 0.0409385 
26.3485 3.4292 -0.0324811 0.102175 
16.3724 1.909 -0.193087 0.0764735 
20.9274 3.9656 -0.0430743 0.0156864 
19.3471 5.9378 0.157044 0.0314389 
24.2604 3.6712 0.081342 0.334582 
23.2529 0.8231 0.307567 -0.15733 
25.407 6.0805 0.00824642 -0.00465708 
19.4427 4.7218 0.013593 0.0762528 
18.3948 0.9134 0.0476819 0.163793 
19.0495 2.5507 -0.21478 -0.128202 
14.6148 5.3377 0.0125991 -0.195456 
19.6312 3.2602 -0.0133595 -0.00613737 
22.515 5.3004 -0.126046 0.0545332 
22.9363 1.1133 -0.00757474 0.043794 
17.1993 2.1317 -0.214013 -0.043383 
24.4828 1.5541 0.0541612 -0.0997396 
23.7351 1.7741 0.240066 -0.211632 
17.4664 5.0167 0.274974 -0.103814 
15.4689 5.8881 -0.0953952 -0.129364 
15.2107 5.8431 -0.149145 -0.0467302 
24.5874 2.739 0.0730318 -0.10819 
14.4719 5.9575 -0.154975 0.167153 
15.5648 2.2057 -0.0848398 0.141646 
15.2081 3.4853 -0.159076 0.0396212 
27.7525 4.0524 -0.00833088 -0.0377022 
27.4748 4.6155 -0.0846086 0.112284 
15.6645 5.1626 -0.128614 0.0402363 
21.6044 5.1372 -0.0637324 -0.0145363 
23.8441 3.1025 -0.158142 -0.118044 
17.9152 1.3856 0.00114784 -0.014593 
15.8456 1.1754 -0.088345 -0.0411515 
14.9404 3.6088 -0.172585 -0.00469641 
24.6931 6.083 0.0187803 0.174202 
16.0303 0.898 -0.0293065 -0.0438179 
22.6984 6.2375 -0.00769089 0.0896665 
19.1907 4.3056 0.0177678 -0.0022586 
26.5267 2.3596 -0.140805 0.0781319 
18.3739 4.1606 0.10309 0.0429623 
21.868 0.6559 0.0189263 -0.166685 
14.4633 4.1551 0.0740376 0.0310648 
27.2755 4.8326 -0.22493 0.201209 
15.0115 1.3638 0.242356 0.0417338 
15.257 6.4641 0.143996 -0.109065 
20.8084 1.3034 0.201594 0.0405894 
26.3303 4.6131 0.118116 0.119428 
15.5233 1.4027 0.0414815 -0.249567 
25.9673 2.8324 0.287552 -0.306961 
22.5399 0.7237 -0.315764 -0.138901 
22.7395 1.9487 0.0561173 0.0511785 
24.4728 3.2617 0.0663372 0.137518 
25.2868 3.9031 -0.270921 0.168497 
26.8286 3.0516 0.140282 0.00521289 
23.6841 4.8707 -0.0833102 0.0323194 
18.2315 0.5864 0.130939 -0.00958175 
24.0724 4.1105 -0.0891981 0.00702582 
25.7695 3.0205 -0.0994015 0.115619 
19.7715 6.073 -0.00621347 -0.100678 
16.08 2.7412 -0.205888 0.0571469 
19.7077 3.5954 -0.0270709 0.180892 
15.0151 5.742 -0.00312584 0.130085 
16.9156 6.1565 0.0986971 -0.0111674 
15.7022 6.5457 0.293018 0.1364 
26.3039 0.8635 -0.22834 0.137544 
23.4679 5.6846 -0.0728664 -0.254063 
18.0466 1.5688 0.325426 0.053753 
17.6337 1.4114 -0.129917 0.0872265 
24.1301 6.44 -0.140794 0.0777431 
16.7604 2.6158 0.0481031 0.151556 
21.6985 2.0537 -0.0813846 0.33206 
27.6999 3.082 0.0834131 -0.0526041 
25.2857 2.1522 0.129788 0.168918 
18.0106 6.6207 -0.0481206 0.16601 
23.7837 6.5216 -0.195593 0.0795183 
20.2868 3.1068 -0.066335 0.236567 
17.0084 3.6726 0.119505 0.171087 
15.9746 1.8933 -0.0466436 -0.115485 
21.2085 5.8037 -0.033657 0.0634693 
16.8872 4.6394 0.0603869 -0.239521 
17.8893 2.9173 0.12657 0.0599009 