ITEM: TIMESTEP
0
ITEM: NUMBER OF ATOMS
980
ITEM: BOX BOUNDS pp pp pp
0.0000000000000000e+00 2.8000000000000000e+01
0.0000000000000000e+00 7.0000000000000000e+00
-1.0000000000000000e+00 1.0000000000000000e+00
ITEM: ATOMS x y vx vy 
2.658 3.7049 0.230174 -0.136431 
3.0427 1.3737 0.106118 -0.0412771 
6.4708 6.7868 0.115366 -0.182558 
8.3555 2.6814 -0.0183618 -0.031991 
11.5659 4.7899 0.0794619 -0.104496 
3.2571 3.3141 -0.0399143 -0.16331 
0.756 3.2327 -0.0701313 -0.164363 
13.733 0.7981 0.335158 0.257314 
8.2321 5.4127 -0.284051 -0.104332 
6.0081 6.2569 0.115601 0.00359654 
3.7287 0.6856 -0.283014 -0.189043 
5.5563 6.2427 0.0464982 0.0514906 
3.5397 4.7527 -0.0184643 -0.111546 
4.987 6.0495 0.0141568 -0.176597 
8.5957 5.9964 0.217891 -0.084373 
13.3197 4.8362 -0.159294 0.184564 
8.8342 5.5721 0.116456 -0.0340593 
10.0714 6.6313 0.126392 -0.304915 
12.331 1.422 0.0860922 0.0288565 
13.8008 3.412 0.0757132 -0.0533651 
8.9597 5.2818 -0.167322 0.0603075 
9.3332 3.5276 -0.125978 0.270285 
5.4104 3.0862 -0.027114 0.153653 
12.8221 4.0537 0.015109 -0.0488847 
4.4655 6.5735 -0.0249268 0.1425 
4.9752 6.3775 -0.121573 -0.148744 
9.6903 0.5253 -0.311775 -0.0976394 
13.5024 2.8543 -0.0418907 0.13057 
7.7329 5.2768 -0.164555 0.135968 
1.512 2.2706 -0.0841822 -0.275569 
4.4429 4.6812 0.151972 0.243456 
11.1963 2.4512 -0.187837 -0.0541788 
2.0585 5.5418 -0.116775 0.0291675 
1.0613 5.4631 0.0398585 0.0890903 
9.9252 3.3286 -0.0333568 -0.130177 
6.2257 3.0783 -0.0268464 0.0541993 
4.363 5.475 0.223455 -0.0134559 
9.5636 4.4759 -0.0690423 0.0403583 
13.2821 0.9654 0.121908 0.0896225 
4.1881 3.6996 -0.094182 0.103183 
1.6392 6.2488 0.156304 0.199515 
4.1674 1.0716 0.108744 -0.062771 
3.6183 5.7769 -0.0693136 0.103273 
10.8785 2.8028 0.214483 0.103433 
4.9531 0.934 -0.154122 -0.220831 
3.8929 1.2147 -0.244505 0.109838 
2.9121 6.0966 -0.130704 0.120507 
4.8233 3.3359 -0.180566 -0.0778005 
10.7256 6.2656 0.220183 0.13206 
3.5549 4.2319 -0.107586 -0.0970258 
10.6849 1.0574 0.0371425 -0.00137017 
12.3192 1.7037 -0.0780146 0.012696 
2.4911 2.8189 0.0561125 -0.256234 
12.3496 4.1 0.229172 0.225788 
1.755 3.8949 0.00091874 -0.0861975 
9.2713 1.6234 0.159188 -0.0763184 
6.0037 4.6262 0.101505 -0.220941 
7.4608 2.5018 -0.118139 -0.17122 
13.7997 4.9377 -0.150907 0.0492622 
3.6936 4.5501 0.137139 0.0538525 
4.1971 6.5752 -0.169138 0.0182433 
6.7937 6.6645 0.104964 0.10804 
12.8954 1.1147 -0.109221 0.0959321 
8.2293 4.4169 -0.244117 -0.0231775 
7.8656 3.1209 -0.174635 -0.0786411 
8.5212 0.5648 0.22855 0.0699543 
8.1125 2.3968 -0.156597 0.17332 
8.5447 5.6733 -0.170048 0.116786 
4.1329 4.8807 0.0533768 0.242434 
10.3592 0.7881 -0.165558 -0.246818 
6.6121 6.2945 0.072917 -0.0819933 
12.1354 1.3182 0.0894966 -0.10786 
7.2783 5.7135 0.193326 0.102126 
3.7848 6.2398 0.010193 0.0581769 
3.2452 2.1871 0.172693 -0.21569 
7.0224 3.134 0.0714857 0.106712 
5.5069 5.506 0.0673156 -0.0571469 
12.3144 2.4268 -0.126578 0.142631 
9.3336 3.26 -0.195173 0.0243764 
2.1451 0.9932 -0.031005 -0.106864 
8.6423 5.0295 0.141067 0.165357 
11.0578 4.356 0.322844 -0.251354 
2.3466 5.4346 -0.100898 -0.0889306 
11.3322 6.5133 -0.111982 0.042642 
7.3137 1.7191 -0.278158 -0.0360787 
7.8479 2.6682 0.0418426 -0.113779 
12.9844 3.4222 0.228713 0.0581241 
3.0759 0.7383 -0.182547 -0.111215 
5.388 1.6781 0.400724 -0.128853 
6.7628 2.7373 0.18549 -0.116473 
12.157 6.7765 -0.147933 -0.123193 
8.0382 0.6913 -0.0125825 0.0115402 
1.3288 5.6906 -0.0301104 -0.278558 
11.9705 5.3601 0.0563442 -0.170337 
3.7402 2.1644 0.192321 0.24313 
4.5709 6.326 -0.015499 -0.0195632 
9.7051 4.06 0.229911 -0.135689 
9.3564 2.0151 0.0195802 0.0384291 
2.7072 4 -0.0170753 -0.234362 
9.0954 3.634 -0.0765679 0.161811 
5.6122 4.6529 0.107036 -0.124879 
2.8029 2.6568 0.256523 -0.120909 
13.357 1.7957 -0.212253 -0.122595 
9.8934 5.1359 -0.0830908 0.329223 
1.8098 1.4754 0.000770995 -0.118117 
0.9849 1.9869 -0.191857 0.00222966 
7.566 1.9337 0.0923001 -0.122705 
6.7856 5.4352 -0.00780969 0.150043 
11.1019 3.7769 -0.0672338 -0.276874 
9.7249 2.6958 0.0767131 0.144763 
4.0942 6.1223 -0.0329416 -0.261822 
13.7011 4.5422 -0.0122831 0.0126154 
0.7976 0.792 -0.0268969 -0.128125 
2.3077 1.4922 0.0745218 -0.0245542 
7.4022 1.4431 0.0404985 0.0210166 
9.873 1.1191 0.135172 0.0258757 
8.3809 4.6485 0.116679 -0.219956 
2.1982 4.9207 -0.113654 0.217285 
3.9338 1.4864 -0.143046 -0.380597 
6.63 5.808 -0.073244 0.10395 
4.2363 5.9552 -0.0501227 0.00166077 
11.8238 6.4185 -0.0367762 -0.0146172 
11.9745 3.5214 -0.0888663 -0.0954271 
4.3459 1.9486 0.040359 0.0236005 
9.6322 5.076 -0.0759179 0.0775149 
11.7193 2.5161 0.008477 -0.0485166 
11.027 5.5975 -0.181647 -0.0216577 
7.7426 4.4649 0.0569479 -0.113112 
8.3655 2.2793 0.0352143 0.0548666 
6.3961 4.6179 0.0225024 -0.10106 
5.9784 3.1281 0.20325 -0.0699511 
7.7644 3.4698 0.114311 -0.0532615 
3.0591 2.7739 -0.193913 -0.0203611 
8.0205 6.2578 0.00876233 0.0189227 
4.3897 4.1377 0.0184826 -0.0638923 
0.8209 2.3557 0.0579701 -0.0960625 
4.9011 1.6476 0.16041 0.0474168 
3.6091 0.5242 -0.138019 -0.0678098 
1.8166 5.0885 -0.151444 -0.0945543 
2.4495 0.5882 -0.164793 -0.0147332 
9.6779 5.6217 0.0457565 -0.0338554 
12.42 5.541 0.162866 -0.0279519 
8.1569 6.1035 -0.0148475 -0.0423318 
6.0039 0.6867 -0.252621 -0.163114 
7.0501 0.9098 0.16178 0.0751663 
3.4696 5.6196 -0.0380436 0.112423 
2.299 3.4378 0.0528772 -0.0418695 
11.2912 5.7079 0.0264567 -0.252513 
2.6515 5.0988 0.246187 -0.303298 
4.435 4.933 -0.0106829 -0.0530441 
11.4447 3.8736 0.163551 0.0598228 
5.1307 3.4369 -0.253623 -0.0252404 
10.1081 2.5275 0.0180597 -0.116763 
5.4616 6.0163 0.0972021 0.152087 
8.9116 3.7829 -0.0127578 -0.0791208 
0.7516 5.8038 0.109555 0.122175 
10.2517 2.6818 0.0451635 0.0387172 
1.2883 3.3277 -0.236243 0.0199038 
13.2602 3.1473 0.0276978 -0.218899 
12.8288 3.2826 0.0746037 0.20425 
1.9613 2.0464 -0.147332 0.0678559 
10.8147 2.9952 0.0136623 -0.168432 
5.0509 3.1073 -0.0657495 -0.064268 
2.6622 1.5057 0.0929085 -0.113133 
9.8831 6.2834 -0.127853 -0.101125 
2.4553 1.3313 -0.0592737 0.0901916 
12.4199 3.121 0.0324872 0.133812 
10.717 3.2141 -0.157513 0.0288734 
3.1001 4.692 -0.227468 -0.272337 
12.371 5.3396 -0.0553385 -0.418613 
6.1932 4.5074 -0.107898 -0.0192638 
2.0094 5.1881 0.0657579 0.0808249 
5.523 1.0397 -0.0280114 -0.0844824 
0.5455 1.912 -0.307517 0.15769 
5.6739 4.2301 0.141091 -0.156715 
8.5796 3.3889 -0.136497 0.119898 
1.7975 2.4975 0.191572 -0.0209575 
11.243 0.6744 0.103212 0.127027 
8.2474 3.6541 0.0923441 0.0784649 
11.4404 4.4472 -0.0820501 0.0647866 
0.7111 3.6143 0.177195 -0.0391323 
9.491 4.6677 -0.177274 -0.0524822 
12.1975 6.088 0.0629083 -0.198041 
9.0618 1.6833 -0.133636 -0.186266 
5.9241 1.4937 -0.0611662 0.132909 
0.7223 4.0842 -0.105867 0.244911 
4.766 4.0778 -0.162334 0.196284 
3.5546 1.6831 -0.0702795 -0.0254122 
7.3154 1.928 0.171473 -0.252076 
7.8424 4.2517 0.153872 -0.100123 
6.5117 3.9275 -0.175291 -0.090316 
1.6805 6.7103 0.022446 0.184421 
4.0015 4.5509 0.073986 -0.0748181 
12.7543 5.9315 -0.259042 -0.257021 
10.2855 1.6466 0.027208 -0.0675511 
3.6926 5.5133 0.044276 0.181559 
7.9676 5.6469 0.0177324 0.0283877 
9.1519 4.6181 -0.2471 -0.0978857 
13.2625 1.2792 -0.153293 0.0870324 
1.9308 1.2562 -0.145802 0.0142197 
1.1976 3.1363 -0.105445 0.312482 
1.8368 3.4253 0.176972 0.0931411 
5.2335 4.213 0.0511216 0.150787 
1.2202 1.4416 -0.0678753 0.0210411 
9.989 0.7269 0.214224 0.0390284 
4.5359 3.4702 0.168387 -0.0156233 
6.3272 1.6928 -0.144092 0.230261 
5.4342 3.9666 0.1581 0.200771 
3.2467 6.4861 0.101394 0.0880803 
1.5058 1.8967 -0.255701 0.0107332 
2.0855 2.5084 -0.220845 -0.0772096 
7.4248 5.931 -0.0885243 0.00987314 
7.4946 0.6218 -0.0565405 0.25539 
1.0487 2.3487 -0.0542121 -0.0603155 
8.3081 3.209 0.303156 0.0357662 
11.5071 2.1998 -0.0244662 -0.104218 
8.2507 1.3789 -0.307664 0.0254442 
11.0879 4.0051 0.111942 0.148292 
11.18 3.4236 -0.0171513 -0.0539028 
1.0347 3.0057 0.307786 -0.114992 
12.8841 1.7103 0.0734726 -0.0129749 
13.9339 4.2539 0.0364066 -0.012054 
9.6869 6.2226 -0.462973 -0.0753611 
0.8499 1.7303 -0.00864491 0.072428 
8.5838 6.3015 0.111387 0.139702 
10.6081 5.0129 0.134624 -0.0731086 
11.9485 3.3037 -0.109336 0.0878488 
0.9472 6.0803 0.182293 -0.0629154 
11.9221 1.9444 -0.0538022 0.0495894 
13.3264 6.0241 -0.206536 0.252256 
13.3979 3.811 -0.0719323 0.0253462 
4.9996 0.603 -0.0166513 0.0483483 
7.024 2.2489 0.0424332 -0.0532562 
13.472 5.3209 -0.0272993 0.14169 
3.3648 6.0979 -0.0527831 -0.103717 
3.1424 4.003 -0.152541 -0.164264 
5.0179 4.3064 0.0607431 0.258398 
8.4059 2.991 -0.189831 -0.00381906 
6.4434 5.6165 0.0425083 0.217891 
9.1354 0.5609 -0.0544893 0.0885745 
2.4811 4.7832 0.0622057 -0.0355383 
5.209 4.8637 -0.103986 -0.0755096 
13.0021 2.3575 -0.0655021 -0.0486811 
1.6333 0.8162 -0.0637661 -0.0271817 
4.5732 3.8993 -0.029 0.0525307 
7.3092 5.2202 0.0679206 -0.0821033 
4.9637 3.7612 0.144683 -0.129419 
12.3794 3.3661 -0.042382 -0.105207 
4.5728 1.4791 0.0490565 0.09062 
13.0793 1.8103 -0.0339836 0.0915089 
10.4413 6.3992 0.0935184 0.172141 
5.2238 5.8646 0.1889 -0.0318881 
4.6217 0.7663 -0.132198 0.0875067 
11.0996 3.2231 0.146939 0.0713999 
2.1246 6.0653 0.151905 0.147662 
1.9314 6.4435 0.00320921 0.157941 
4.1367 1.2772 0.12221 0.109607 
11.2219 1.7602 0.039731 -0.395308 
5.8711 4.9833 0.139441 0.0857673 
5.6806 5.6292 0.0223682 0.14867 
13.9829 6.0118 0.022101 0.0794314 
7.6313 2.3533 0.0459196 0.0283319 
7.5575 3.0321 0.192483 0.203785 
11.3077 1.1501 0.00475232 0.141734 
0.7797 2.8896 -0.186624 -0.0162938 
2.0144 3.0274 -0.0392652 -0.0444862 
2.8602 1.6076 -0.0805159 0.266283 
7.5164 3.9939 0.0609169 -0.108749 
2.5068 1.9386 0.0566017 0.0361862 
6.1131 3.9506 -0.392306 0.00984604 
9.4339 4.8777 -0.077504 0.046613 
4.9009 5.2805 0.194724 -0.140469 
8.4308 1.1884 -0.0499897 -0.0728002 
12.9018 5.6682 -0.149658 -0.205389 
1.3537 1.6792 0.0244406 -0.15862 
8.758 6.7423 0.128144 -0.0286937 
12.5854 2.2388 -0.000650276 -0.0481932 
1.5406 3.3519 0.138498 -0.0181891 
12.7312 4.5468 0.0600776 -0.0252898 
13.7143 5.8993 -0.0572309 -0.147398 
6.161 6.4353 -0.116005 0.0527372 
13.2251 3.5078 -0.253703 0.13497 
8.6421 2.2089 -0.0193526 0.101889 
6.1743 6.0675 -0.0804059 -0.0222723 
3.8709 1.8015 -0.347683 -0.0825995 
5.5943 5.2069 -0.198848 -0.0582761 
5.4922 2.2128 0.0891402 0.17007 
9.9929 3.0597 0.0157163 0.0330964 
2.1847 6.6884 -0.280756 0.241317 
7.1936 0.5593 -0.129254 0.161245 
4.8512 1.978 0.00985486 0.0566631 
8.4106 4.2077 0.0580631 -0.00360042 
4.3002 5.7232 -0.17331 0.215845 
10.3057 1.0935 -0.178076 0.0860159 
9.2656 5.269 0.219453 0.152575 
9.9705 4.2677 0.0880724 0.146794 
10.5482 4.779 -0.014655 -0.211637 
9.875 1.4448 -0.137838 0.387552 
1.3906 2.6068 0.0760504 0.164506 
11.226 2.7563 -0.0485344 -0.0738045 
10.4297 2.8857 -0.0573664 0.0714221 
0.9558 3.5489 -0.103135 0.0520016 
9.0041 3.0437 0.211581 -0.25217 
5.5642 0.7958 -0.0962893 0.0372414 
7.1508 6.0373 0.0364974 0.160261 
6.9478 5.8496 0.043267 -0.191012 
9.0078 0.7173 -0.0360518 0.0831183 
4.8885 4.9831 -0.357475 0.186896 
10.285 2.3638 0.0149673 0.143429 
6.1719 5.2174 -0.00312902 0.035024 
11.2684 4.2739 0.0829318 -0.0734789 
12.8691 0.5976 -0.141198 -0.216773 
5.4803 4.9357 0.0593725 0.0673611 
12.1948 2.0025 0.150989 -0.155289 
12.1628 0.5227 -0.0444427 0.306078 
9.1166 0.9506 0.0484693 -0.0340557 
3.7506 5.1995 0.114626 0.0684269 
9.2459 6.4597 0.0525598 -0.00115339 
2.9306 3.8988 0.0551255 -0.0503598 
2.936 2.2168 0.416278 0.0683405 
13.5966 5.4827 -0.0314446 0.124701 
2.8111 4.2207 0.00169493 0.121411 
3.7739 0.951 0.0395809 0.273262 
7.5579 6.6842 -0.0256151 0.201054 
11.1901 1.9599 -0.108069 -0.139546 
13.6264 6.6168 0.160019 0.0129577 
6.1055 5.4973 -0.0025499 -0.053319 
6.7314 2.348 0.00816647 -0.194014 
9.726 3.6928 -0.120195 0.0147822 
4.5521 3.0622 -0.18646 0.248579 
5.5814 2.4868 -0.0737153 0.191846 
3.9969 2.3824 -0.0357523 -0.00131096 
12.1013 0.7783 -0.0564701 0.237888 
2.9921 3.1875 -0.140393 -0.0403733 
10.3861 3.3198 -0.077282 -0.124339 
2.0026 0.5136 -0.0354885 0.00841376 
8.9084 3.4351 -0.0408417 0.163574 
10.6104 2.2487 0.0148065 -0.0192184 
12.1131 4.7781 -0.121977 0.00892117 
6.9036 1.7913 0.314269 0.186996 
2.8788 6.7424 0.0771407 0.178853 
5.6966 3.9487 0.0810974 -0.11781 
7.269 3.823 0.00884204 -0.18846 
5.6833 3.3494 0.192472 0.117263 
13.6726 1.101 0.0367796 -0.01738 
11.8553 2.9177 0.151668 -0.116455 
7.6378 5.7714 0.0216724 0.011641 
0.9158 1.0056 0.0612235 0.00839274 
5.5327 0.5765 0.0494142 -0.0454588 
11.1472 6.1616 -0.17481 -0.0395475 
9.0089 4.7911 -0.0799865 -0.15667 
5.7409 0.5016 0.0316254 -0.0859946 
7.0723 3.4218 0.0198033 -0.0522205 
5.1196 6.5321 -0.112469 -0.10015 
12.5437 4.2174 -0.155451 -0.264183 
6.4324 2.3801 0.0271508 0.292803 
7.2271 6.7842 0.257697 0.0389299 
7.6755 1.3657 -0.115475 0.0344768 
12.3538 6.3286 0.0512019 -0.134549 
5.2696 1.3022 -0.308146 -0.00601725 
0.6972 0.5436 0.187933 -0.0159863 
9.8648 5.4018 0.25869 -0.0434467 
7.9858 1.559 0.300129 -0.0427892 
3.0572 5.8366 -0.182454 -0.100075 
13.6745 1.7094 -0.055824 -0.161758 
2.769 0.9117 0.0291423 -0.259099 
2.5675 4.3739 -0.0531238 -0.238532 
10.7135 5.7111 -0.093103 -0.0143517 
2.0278 4.6401 -0.116944 -0.148614 
3.4956 2.0348 0.121699 -0.0715215 
7.3675 1.0061 -0.000803222 0.084672 
4.2968 3.4667 0.0648899 -0.229488 
2.6288 2.3347 -0.146453 -0.0620675 
11.6523 3.8981 0.0591441 0.218552 
6.7365 5.1458 -0.0739247 -0.0519448 
13.5754 4.9531 0.058022 -0.0374799 
4.4175 0.5312 -0.120394 0.0810193 
8.8727 5.9725 0.00155609 0.0140524 
1.9747 2.8066 -0.0909896 -0.2619 
4.9597 2.5707 0.132034 0.00561158 
9.0597 2.6495 0.0242269 -0.0204917 
11.1001 2.9899 0.156175 -0.060843 
6.5458 2.1073 0.0842341 -0.154548 
0.9454 1.4072 -0.0753934 0.0109548 
9.9925 2.1427 -0.0191567 -0.180732 
8.1942 0.5442 0.13893 0.0210032 
4.5388 5.8184 0.243407 0.13618 
9.6264 2.22 -0.224544 -0.0113955 
6.4715 2.8923 -0.216188 0.0565134 
12.8662 2.5313 0.277364 0.0709313 
3.3205 4.1311 0.0399228 -0.0516705 
0.823 4.8527 0.220878 -0.0104954 
0.657 5.4175 0.229799 -0.000411404 
4.3408 3.0157 -0.0701852 -0.00163461 
9.7051 0.7792 -0.122331 -0.164665 
7.6831 0.7641 -0.120495 0.198787 
11.4628 5.3971 -0.0541564 -0.0707339 
11.7624 3.726 -0.00934499 0.12697 
13.6266 3.8448 0.0510366 0.119905 
1.865 1.7566 -0.0942805 -0.0251574 
4.5893 0.9761 0.296245 -0.044102 
11.4654 3.3075 -0.210754 0.0388503 
7.3785 6.1952 -0.00643802 -0.295353 
12.887 4.8093 -0.232993 0.123343 
10.8604 2.3478 0.231404 0.012009 
3.5011 1.2433 0.0220077 -0.192613 
7.1106 5.3691 0.0742474 -0.0537331 
10.7024 2.6803 -0.0533576 -0.0799479 
12.6811 5.3451 -0.0213469 -0.0509891 
12.6351 1.6684 -0.145186 -0.16661 
13.4611 3.2373 0.0475216 -0.244702 
12.3621 6.6446 0.053979 0.161639 
4.6928 0.5055 -0.144732 0.115768 
8.6571 4.5756 -0.0902213 -0.136661 
6.3329 4.3483 0.016829 0.146119 
3.9147 5.5274 -0.0931227 -0.124367 
10.5737 1.3683 0.270329 0.150259 
13.7261 2.7343 0.156693 0.0270582 
2.5673 5.3082 0.233214 0.0796295 
10.9971 5.9165 0.00390171 0.0797262 
8.3859 3.8985 -0.150857 -0.0239421 
3.4421 2.5309 0.202298 -0.0508738 
6.8295 1.0183 -0.036812 -0.140181 
5.3757 2.7591 -0.0820489 -0.0701165 
10.4964 5.9264 0.238878 -0.0759449 
12.0816 3.7547 -0.306667 0.0293138 
2.4999 6.7068 0.092627 0.0457599 
12.8127 6.636 -0.12045 -0.0974579 
5.3243 0.9731 0.23264 -0.018257 
8.1958 2.1081 0.136201 -0.103589 
6.271 3.4372 0.0392684 0.151091 
10.3963 1.9573 0.0128014 -0.284824 
9.2539 2.3902 0.0138737 -0.123905 
6.0983 1.7361 -0.0190335 -0.0374538 
13.5148 2.3102 0.0429461 0.236802 
1.7767 5.4552 0.0413141 0.198413 
0.5008 4.8858 -0.159626 -0.0482676 
13.6186 4.0886 0.198557 -0.158945 
10.0331 0.9323 -0.12542 -0.0885021 
3.6544 6.6072 -0.153888 0.142043 
8.6057 3.7566 0.11727 -0.140995 
9.4769 6.6413 -0.10037 -0.079386 
13.1856 2.6822 -0.3861 -0.0688339 
12.6208 0.6524 0.0959058 -0.00741886 
12.03 2.6789 0.167381 -0.0137753 
1.6944 4.4906 0.0535035 0.205493 
1.9527 3.7788 -0.1744 0.0473579 
4.5048 2.7511 0.180341 0.0963852 
0.5479 0.7221 0.0294212 0.149617 
12.0638 2.9765 0.0377526 0.110096 
6.8464 3.2855 -0.0764293 0.230984 
4.4692 3.7092 -0.115682 -0.230338 
8.7431 1.8331 -0.000983934 -0.0898539 
11.1515 4.7346 -0.0477681 -0.0275326 
2.4164 1.7538 0.171781 0.0314363 
8.0752 4.0206 -0.281529 -0.073245 
9.8741 1.917 0.0016822 0.014563 
11.7202 4.5369 0.0597421 -0.182469 
1.4513 4.7727 -0.167584 0.00503024 
1.3032 3.9757 -0.199013 0.065416 
12.9413 4.5004 -0.323184 0.123377 
7.0626 1.1829 0.0124742 0.082113 
2.8307 3.5799 -0.0136184 -0.268286 
11.9416 5.8018 0.0390678 0.0206294 
2.7895 5.7757 -0.0280523 0.342248 
10.6265 0.565 -0.22403 -0.274643 
1.6503 2.9693 -0.324143 -0.188868 
2.3789 6.1452 0.198093 0.0501079 
13.2491 6.5654 -0.0483876 -0.127294 
9.6743 5.3196 0.0774018 0.118431 
0.5569 6.3633 -0.143562 0.0850079 
13.464 4.4812 -0.057625 0.0733094 
6.8159 1.3184 0.0730686 0.0493059 
11.4867 6.3617 0.0393367 -0.0421972 
10.2159 3.6185 0.0550952 0.114767 
4.0817 2.9076 0.135581 -0.127226 
6.5265 1.7962 0.0667065 0.123257 
2.2584 1.9309 -0.123105 0.0794317 
2.8122 0.5497 -0.169673 -0.147673 
8.7494 2.5385 0.236574 0.0181528 
20.6085 1.834 -0.105794 0.141102 
25.8559 1.2414 0.0363779 -0.0765791 
14.818 4.4473 -0.0219129 -0.116622 
14.4553 3.6436 0.0640507 0.0934385 
27.566 4.2545 -0.247518 -0.0400696 
15.3022 6.6755 -0.121749 0.193542 
25.2502 1.9146 -0.156135 -0.106986 
27.4931 5.4056 0.195486 0.0684211 
15.9693 3.8424 0.0306083 -0.0188325 
22.4214 2.802 -0.0710008 -0.0513111 
14.1041 6.7248 0.0616665 -0.0662306 
14.6795 3.3618 -0.266657 0.0642111 
20.0068 4.469 -0.0102217 0.109345 
24.9271 0.9204 -0.148445 0.122172 
21.2205 3.0932 -0.0622444 0.150384 
15.254 0.9931 -0.0248758 0.0783329 
18.2677 3.9631 -0.0157617 0.296374 
26.9625 3.6591 -0.0425996 -0.0490009 
23.0356 6.324 0.0181147 -0.153151 
24.3166 3.4981 -0.232859 -0.059827 
20.6061 4.6204 0.207972 0.248368 
19.7076 0.6901 0.0990794 0.121397 
23.6657 5.7725 0.141224 -0.0821926 
26.9729 4.7837 0.0389046 -0.188918 
20.6478 5.4411 -0.090459 -0.191393 
26.734 6.2624 0.12194 -0.164183 
22.4338 1.7412 0.0574445 -0.118391 
18.8202 5.2702 -0.0953154 0.0732549 
26.7649 1.4268 -0.0355431 0.0853355 
26.1421 6.4423 -0.0536951 -0.229534 
15.1776 4.9738 0.251328 -0.107816 
22.7061 0.5335 -0.00146835 -0.0176412 
27.6532 6.0962 0.0372389 0.280807 
21.6645 4.7559 -0.164799 -0.168105 
24.7317 3.6838 0.288122 -0.135424 
25.6175 6.1212 -0.0129339 0.0518472 
22.7255 2.1136 -0.223649 -0.159995 
21.338 1.033 -0.354389 -0.102345 
16.4989 4.4805 0.110527 0.126929 
22.8912 3.1308 0.0583767 -0.333637 
25.453 5.5177 -0.0213566 0.0406981 
14.1696 1.1349 -0.185037 0.0680481 
24.2004 3.6797 0.373807 -0.000974268 
26.2087 2.1708 0.161124 0.0340326 
25.3965 5.1176 0.00909728 -0.157166 
17.5326 3.1925 -0.0258563 -0.223744 
19.4852 2.2381 -0.22048 0.276749 
17.9185 4.0276 -0.0370528 0.0253204 
25.1748 5.6359 -0.192267 0.026004 
25.2455 0.8234 0.19495 -0.0726187 
22.0556 6.1411 0.0281226 0.0575811 
21.0923 3.7126 0.102061 0.178335 
18.7186 1.9281 0.0343134 -0.0402479 
19.195 1.3247 0.335254 -0.0888721 
27.674 1.8586 0.139401 -0.00537484 
24.1371 2.368 -0.106925 -0.0619669 
27.7197 5.8173 0.228629 -0.129287 
21.187 6.6446 0.0774906 -0.0532927 
16.2343 6.1217 -0.0812697 -0.0476676 
27.2906 6.1848 -0.289394 -0.0184892 
16.7904 3.9618 0.135661 0.0472237 
15.3139 6.1557 0.103858 -0.0734175 
24.8219 2.7376 -0.0288589 -0.117691 
17.2735 2.0594 -0.0211761 0.0646837 
26.7394 4.8453 -0.0614508 0.124399 
17.1706 0.5025 -0.0367749 0.17682 
27.7894 3.2697 0.105132 -0.132259 
23.1626 4.1 0.106175 -0.0764156 
25.7669 1.741 0.16662 -0.0791794 
21.8629 3.4825 -0.156198 0.137483 
25.7436 3.1805 -0.122553 0.0097184 
16.7775 1.743 -0.161975 0.0453434 
27.4563 2.0711 0.079915 -0.0336892 
14.3777 4.3277 -0.112277 -0.0455989 
18.6451 5.9155 -0.176639 -0.164195 
16.4401 3.7718 -0.0236054 0.206732 
16.8572 2.2891 0.0669313 0.120736 
17.0809 6.5864 -0.0594901 0.473641 
17.9002 2.902 0.0172929 -0.0695203 
22.797 1.3722 0.0943975 -0.0462411 
22.9662 2.8234 -0.0740742 -0.150447 
16.8776 1.3176 -0.13073 -0.110694 
23.027 1.711 0.101191 0.0619268 
26.6017 6.0144 0.119983 0.0347995 
19.8691 2.3803 0.0916692 -0.125035 
26.0913 1.2959 -0.0903712 0.127455 
16.7122 5.4195 0.16875 -0.00912456 
17.016 5.6471 0.0176046 0.0744597 
20.6918 2.5408 -0.0318867 0.206766 
22.3595 5.6569 -0.302655 -0.0105193 
18.9363 5.7457 0.161027 -0.00855489 
20.1584 5.4796 0.0911671 -0.203462 
26.4474 0.596 0.0506661 0.0310584 
14.286 0.6863 0.0560542 -0.259939 
17.1053 1.687 -0.153698 0.223579 
26.5031 3.4197 -0.055173 0.310524 
25.4826 4.8143 -0.134096 0.0803535 
26.0727 3.3065 -0.145304 0.0586235 
23.8928 4.4068 -0.0135552 0.152204 
21.4586 4.9349 0.0932944 -0.0556912 
21.2925 4.1871 0.0973456 -0.0370288 
16.6214 0.7455 -0.00587451 -0.109664 
16.6012 6.737 0.360693 0.015551 
25.2861 6.1017 0.130456 -0.0803737 
20.4033 4.4893 0.223667 -0.231478 
23.4947 4.3246 -0.312736 0.152293 
24.8921 1.5694 0.197186 -0.326994 
21.7986 1.8981 0.15068 -0.0456561 
15.8821 4.8706 -0.189953 -0.174373 
26.0908 2.5681 0.0239808 -0.0375989 
17.5518 4.9966 0.189052 0.0293212 
23.9231 2.1828 -0.00446869 -0.237174 
17.5037 2.7108 0.175736 0.253044 
18.8493 2.697 -0.314922 0.161509 
27.1672 5.1037 0.0398194 -0.0393439 
19.2573 3.9629 -0.0946707 0.00883143 
22.6487 6.2818 0.248065 -0.033222 
19.0689 4.5422 0.11541 -0.131311 
17.851 5.2259 0.155786 -0.0335003 
22.5285 1.245 0.0741612 0.0504182 
19.754 5.3868 0.0503791 0.158697 
25.4079 1.6057 -0.234551 -0.0743242 
14.1733 0.919 -0.168947 0.091395 
22.7486 5.6038 0.162172 0.146157 
16.921 0.7552 -0.166722 -0.0850395 
25.1734 4.0405 0.189449 0.0727123 
17.3797 4.634 0.0754228 0.151159 
22.7574 2.8994 0.148191 0.0387984 
24.2358 3.3035 0.088323 0.0511182 
23.9856 1.1651 -0.0695154 0.0682269 
27.2995 3.5961 0.121098 -0.25662 
15.4985 2.1458 -0.101362 -0.113299 
15.9553 2.1853 -0.0659873 0.118635 
26.6047 0.7532 0.0941628 -0.0982404 
19.0735 0.5762 -0.425433 -0.021315 
26.2359 6.0853 0.100551 -0.080885 
23.8465 5.9638 0.19187 0.00632517 
15.063 4.3053 0.0888293 -0.0210851 
16.5404 3.3141 -0.186159 -0.178747 
17.073 4.8716 0.00746943 -0.140388 
24.0539 1.4303 0.120842 0.0980383 
26.7214 2.316 0.106511 0.100473 
14.7324 2.3705 -0.0223231 -0.0426994 
19.282 5.8019 0.0802268 0.00148302 
21.7806 3.962 -0.0765919 -0.208774 
21.731 5.7201 -0.0662187 -0.161058 
14.0451 2.4299 -0.149031 -0.287763 
21.004 1.1315 0.0637414 -0.0102732 
17.8862 1.1453 -0.0283016 0.124693 
27.4795 0.6784 0.0138242 -0.0509415 
20.8286 4.5036 0.0516984 0.0407305 
23.3826 2.4177 0.0773184 0.0150024 
16.1689 2.794 -0.00567385 0.071261 
25.4437 2.5056 0.0307006 0.0336702 
17.0473 2.6393 0.0589155 0.229917 
18.4821 6.5783 0.137858 0.147792 
17.7611 3.3105 -0.0423997 0.056816 
25.044 1.313 -0.230656 0.059224 
14.346 2.2749 0.051337 0.122382 
14.3889 6.0735 -0.209715 -0.19024 
19.3672 4.422 -0.0659609 0.0637499 
22.155 5.4914 -0.138627 -0.128882 
23.4908 0.6068 0.0131582 0.0221754 
17.8202 4.4246 0.0211182 -0.134791 
15.1028 2.6847 0.0416836 -0.19697 
21.1491 3.3578 -0.0353934 -0.0837638 
22.514 4.3376 0.171375 0.0317397 
18.656 5.5149 -0.0044487 -0.159874 
15.6669 5.4656 0.0651617 -0.0637585 
15.934 4.2439 -0.0769465 -0.014549 
18.5398 1.5258 0.0117566 0.0284925 
16.1769 5.5329 0.0574161 -0.0910418 
24.1833 2.6643 0.11741 0.0287681 
18.8248 1.1359 -0.145637 0.233155 
17.4807 0.8496 -0.0961566 0.222165 
18.4704 4.3749 0.131492 0.140934 
21.065 4.8653 -0.0104864 -0.0882129 
23.4589 2.8352 -0.12825 -0.0880837 
21.0195 0.5452 0.0170964 0.0250235 
26.5969 5.3368 0.139111 0.300408 
23.622 1.4984 0.121754 -0.300491 
26.4505 2.0441 -0.0182347 -0.206124 
20.1817 1.2781 -0.0209348 0.0485069 
23.4053 4.6002 -0.135079 -0.245538 
16.7231 4.3473 -0.201152 0.259977 
17.9131 6.5439 0.0313269 0.29775 
21.7405 6.6932 0.122846 -0.0953534 
20.9322 4.0778 0.0616816 -0.0250429 
14.0078 2.1987 0.122421 0.0584431 
24.2939 6.4633 -0.00188182 -0.0603798 
24.1099 6.1257 -0.283641 -0.0286532 
20.4465 3.694 -0.0426813 0.149281 
25.928 2.1369 0.24713 -0.231174 
21.9729 4.1085 -0.0920011 -0.128183 
24.3138 1.1923 0.0989553 0.0792521 
23.0561 0.9346 -0.0889922 0.219187 
15.1209 3.7479 0.115585 -0.0898501 
19.0125 2.8454 -0.289083 -0.0357671 
26.2628 3.445 -0.0986661 -0.104091 
21.3447 5.3551 0.00891763 0.0161324 
18.7892 3.6561 -0.0663116 0.14181 
14.8871 3.5437 0.235235 -0.0142154 
26.3795 1.0764 -0.0300252 0.021933 
27.4193 1.4824 -0.078688 -0.219327 
23.2008 5.8915 -0.0117161 0.000246288 
20.1965 4.6825 0.226502 -0.0574397 
16.0593 1.1009 0.242534 0.163094 
16.7296 1.9484 0.00358426 0.17784 
18.3228 6.7635 -0.211222 0.100497 
19.0234 6.0506 -0.0327086 0.0512938 
17.264 3.7953 0.0637709 0.102854 
27.1351 6.5854 -0.220222 -0.0251825 
27.0908 2.9311 0.258232 0.216396 
17.4724 2.3213 0.00136004 0.143801 
20.4431 2.3963 0.26589 0.097739 
25.435 0.9226 0.107396 0.0794225 
22.5533 6.547 0.165629 0.186112 
21.4238 2.1237 0.197875 0.111975 
26.5665 2.8334 0.031027 0.0868808 
21.7841 0.7518 0.0856392 0.149551 
15.6778 2.9197 0.467591 -0.146503 
24.4943 3.2658 -0.0826327 0.106652 
17.6156 4.241 -0.0726477 0.215783 
15.5996 4.2048 0.214977 -0.0541433 
26.3265 5.5701 -0.0236513 0.0278029 
21.4438 3.622 0.0639238 0.0604626 
17.9245 4.7893 -0.336947 0.0365415 
14.9968 6.7226 0.0907554 -0.0863797 
17.9789 1.4304 0.0483707 0.186785 
27.031 3.1751 -0.0265264 0.234615 
25.6316 1.3149 0.0826057 -0.16493 
23.4934 1.9311 -0.0280245 -0.230917 
23.7599 3.5351 -0.136714 0.130117 
20.6317 4.0861 0.110858 -0.246928 
19.788 5.7735 -0.0936385 0.0310953 
24.4851 1.5978 -0.324491 -0.0471071 
14.6022 2.1801 0.13015 -0.231361 
25.0624 4.6295 -0.067653 0.213822 
24.8496 6.7083 -0.21056 0.00854591 
27.1485 5.4221 -0.142596 -0.0525135 
15.1892 5.3481 0.0875893 0.0232102 
18.4262 3.792 0.0721357 -0.108536 
14.7383 5.1057 -0.0452864 0.0997873 
26.3104 3.1663 -0.0510649 -0.115414 
19.6577 1.7938 0.0511486 0.195362 
16.2474 5.009 -0.0594284 0.000760521 
23.0964 4.4645 -0.00502086 0.0343234 
18.8022 2.2644 -0.34554 -0.0577661 
19.5455 0.8781 -0.00160984 -0.30235 
16.9231 1.0753 -0.0286044 -0.00281105 
15.4266 4.03 -0.0915632 0.24607 
18.1259 2.1368 -0.0626366 -0.0680141 
15.5482 5.2457 -0.077903 -0.115217 
17.1394 3.2654 0.112365 0.0190952 
14.2755 5.1673 -0.0786139 -0.0678031 
21.5719 5.5081 -0.0658422 -0.139227 
24.905 4.8445 0.153397 -0.0798965 
23.195 1.9008 -0.139701 -0.0673975 
20.3612 2.0374 -0.0257826 0.095564 
20.8213 3.0032 -0.11856 -0.310615 
26.9887 2.0035 0.207428 0.0353819 
26.4329 2.2751 -0.310841 0.203507 
14.7986 0.8363 0.190751 -0.348013 
16.5369 5.6065 0.0616464 0.0943971 
19.4647 3.6399 0.0667939 -0.290908 
17.2662 5.5039 0.0654189 -0.00139796 
19.9247 1.456 0.276396 -0.0803174 
24.1673 6.6658 0.204169 0.0347842 
25.5027 3.48 -0.0191778 0.124526 
26.5451 6.7441 -0.0799329 0.0445224 
18.2396 2.4168 -0.098868 -0.112459 
27.5823 2.9797 -0.118802 -0.0733931 
26.4168 4.023 0.0314806 0.342285 
20.6217 0.5951 0.121949 0.0723654 
27.1269 0.5597 0.215795 0.348211 
19.0233 3.1973 0.166927 0.013074 
17.2179 4.3357 -0.0467179 -0.225384 
18.9102 2.4681 -0.209401 -0.0336544 
15.3306 3.1309 -0.0459255 0.134906 
16.3524 5.9511 0.285338 -0.0865065 
14.56 2.8948 0.16477 0.163729 
16.4957 6.5078 -0.126879 0.0640751 
27.4818 6.3846 0.158743 -0.0645537 
15.3632 3.6222 0.151752 -0.15834 
18.1559 6.5288 0.167319 -0.0762249 
18.6347 0.5719 -0.271543 -0.0742293 
25.8837 4.4269 -0.0848685 -0.0749121 
15.9111 5.2162 -0.0154232 0.126943 
25.7601 3.9906 0.162166 -0.255176 
24.4232 4.6868 -0.11839 0.0436947 
15.8259 5.737 0.179913 -0.147643 
27.6657 5.5803 -0.126198 0.0177518 
14.9563 2.5331 0.110162 -0.00697097 
24.1108 6.3451 0.00432355 -0.0834696 
15.0626 3.3178 0.121659 -0.267165 
25.3458 3.7744 -0.0350136 0.0900807 
26.1311 0.6318 0.0096031 -0.000961825 
26.0484 5.5369 -0.0512861 0.140291 
19.2195 5.2033 -0.00909421 -0.0360718 
17.2975 5.0564 -0.0689904 0.0365955 
16.3824 2.7499 -0.217399 0.128231 
24.2457 0.6135 -0.123439 -0.174473 
16.1709 1.839 0.252754 -0.239451 
22.0071 4.3156 0.000657921 0.0417163 
17.3041 6.0352 -0.00386088 -0.164394 
18.9448 1.3805 0.294408 0.118171 
26.3835 6.3295 0.129163 -0.0159602 
14.3282 3.169 0.0228666 -0.0470017 
24.5778 2.9815 0.121314 -0.0423395 
15.1203 2.8988 -0.0902487 0.214215 
20.9732 4.6656 -0.0993611 -0.0890078 
25.6516 1.0307 -0.234433 0.222464 
16.3806 4.6933 -0.0179105 0.216695 
19.4445 6.7631 -0.167264 -0.0907494 
18.4577 2.2875 -0.204649 -0.123767 
18.8728 1.5767 -0.0789449 -0.3846 
22.1405 2.4553 -0.112161 0.0237909 
26.1928 3.678 0.0245298 -0.073242 
27.4424 0.9673 0.164397 0.0804983 
22.6389 5.9893 0.159367 -0.0066217 
26.0207 5.1198 -0.097858 0.220774 
25.5891 2.3612 -0.00854439 -0.279655 
23.0817 4.795 -0.310735 0.241021 
21.4581 2.8735 0.183135 0.0729242 
22.7954 3.6573 -0.114179 -0.136415 
22.4812 3.0229 -0.025775 -0.0792627 
17.3356 1.3573 -0.0494925 0.113873 
16.5017 1.9976 -0.123342 0.066517 
15.3565 1.3925 -0.117409 0.265506 
19.7356 6.5674 0.177197 0.102062 
27.6474 0.8803 0.0201866 -0.0811517 
21.1838 1.8018 0.266294 -0.0119688 
20.8092 4.255 -0.144602 0.119009 
14.7296 4.2249 -0.138043 0.012 
21.8117 2.3072 0.13022 -0.0189489 
20.6288 3.8574 0.126424 -0.0711532 
21.041 0.8479 0.418549 0.153197 
17.5179 1.5828 0.176894 -0.238426 
25.6771 5.0944 -0.108618 -0.0070517 
21.7705 4.2172 -0.126439 -0.172243 
24.5669 6.6253 -0.158833 0.405925 
26.7022 1.8108 0.0452384 0.00285268 
27.4623 3.735 -0.050988 -0.0658351 
14.7473 1.2077 -0.268946 0.104295 
18.9759 3.7461 -0.0168877 0.0794935 
21.5339 0.6791 -0.0852509 -0.0219987 
21.9998 6.4947 -0.078369 0.156969 
20.78 5.2411 0.052583 0.0966161 
15.0388 6.1811 -0.0311006 -0.0600119 
21.3946 6.5079 -0.079446 -0.203333 
24.2471 4.3427 0.080701 -0.0949519 
14.6694 6.0527 0.00896778 0.242098 
17.8013 2.1769 -0.0333267 0.0475249 
27.5968 5.064 -0.0547609 -0.103984 
16.867 4.7549 0.170205 -0.0954103 
21.5414 4.4514 -0.134385 -0.0183796 
24.4923 2.1882 0.240513 0.222408 
20.3557 1.7917 0.0624017 0.199226 
21.9229 5.7832 0.0977574 0.0947578 
17.1931 4.5425 -0.0498327 0.101608 
24.9306 0.5046 0.01162 -0.147122 
20.3289 6.6026 0.165051 0.0417283 
22.0267 3.639 0.0174634 0.028084 