# LAMMPS data file for rigid bodies

1260 atoms

2 atom types

0.0 	 28.0 	 xlo xhi 
0.0 	 15.0 	 ylo yhi 
-1.0 	 1.0 	 zlo zhi 

Atoms

1 1 0.43 70.00 19.2848 11.0194 0 
2 1 0.47 70.00 20.8745 7.1290 0 
3 1 0.53 70.00 5.9483 0.9814 0 
4 1 0.49 70.00 26.3537 2.8807 0 
5 1 0.51 70.00 24.1495 3.3660 0 
6 1 0.50 70.00 8.2910 10.2971 0 
7 1 0.45 70.00 19.0960 13.1978 0 
8 1 0.54 70.00 11.0610 0.6075 0 
9 1 0.50 70.00 14.0537 12.0472 0 
10 1 0.48 70.00 4.7693 5.7251 0 
11 1 0.50 70.00 17.2483 7.8679 0 
12 1 0.39 70.00 3.9585 10.5866 0 
13 1 0.53 70.00 8.0999 11.5196 0 
14 1 0.49 70.00 1.8434 7.3577 0 
15 1 0.49 70.00 0.5797 8.2672 0 
16 1 0.41 70.00 3.6592 6.6434 0 
17 1 0.47 70.00 20.9280 11.7084 0 
18 1 0.43 70.00 8.5149 13.9593 0 
19 1 0.44 70.00 21.1730 9.9945 0 
20 1 0.44 70.00 8.7512 9.8882 0 
21 1 0.45 70.00 10.3965 3.4831 0 
22 1 0.46 70.00 25.4280 10.1520 0 
23 1 0.46 70.00 10.7977 8.0796 0 
24 1 0.47 70.00 5.4011 12.9737 0 
25 1 0.49 70.00 21.6217 2.2006 0 
26 1 0.53 70.00 4.5705 10.2746 0 
27 1 0.47 70.00 27.0619 5.5889 0 
28 1 0.48 70.00 15.8955 5.3906 0 
29 1 0.50 70.00 26.3842 14.7656 0 
30 1 0.44 70.00 23.1805 5.0446 0 
31 1 0.49 70.00 4.0667 11.1678 0 
32 1 0.48 70.00 22.4852 8.3381 0 
33 1 0.47 70.00 19.4039 4.7464 0 
34 1 0.48 70.00 21.9157 5.9082 0 
35 1 0.48 70.00 20.3821 7.3820 0 
36 1 0.44 70.00 24.1965 2.7154 0 
37 1 0.44 70.00 18.6900 3.8811 0 
38 1 0.45 70.00 14.0973 3.1438 0 
39 1 0.49 70.00 0.6743 9.6908 0 
40 1 0.52 70.00 27.3423 8.8053 0 
41 1 0.45 70.00 14.0616 12.9136 0 
42 1 0.48 70.00 3.8105 11.3518 0 
43 1 0.49 70.00 27.5591 13.7624 0 
44 1 0.46 70.00 13.4992 12.5475 0 
45 1 0.48 70.00 10.5634 8.1877 0 
46 1 0.48 70.00 5.8707 10.9237 0 
47 1 0.47 70.00 25.9999 1.5174 0 
48 1 0.47 70.00 22.3957 7.1317 0 
49 1 0.45 70.00 27.0628 0.6720 0 
50 1 0.52 70.00 23.7340 3.8995 0 
51 1 0.46 70.00 12.2278 6.7506 0 
52 1 0.46 70.00 19.0493 5.8443 0 
53 1 0.53 70.00 21.5039 4.1269 0 
54 1 0.44 70.00 23.0719 9.8126 0 
55 1 0.54 70.00 12.3838 8.5868 0 
56 1 0.51 70.00 2.6363 3.8038 0 
57 1 0.49 70.00 19.8617 4.6688 0 
58 1 0.47 70.00 2.8101 14.2580 0 
59 1 0.47 70.00 15.9037 14.3502 0 
60 1 0.48 70.00 16.2084 5.3701 0 
61 1 0.48 70.00 6.7018 4.4185 0 
62 1 0.48 70.00 8.7775 3.6437 0 
63 1 0.46 70.00 20.4176 14.0643 0 
64 1 0.49 70.00 10.5505 11.7838 0 
65 1 0.47 70.00 21.9279 10.4765 0 
66 1 0.45 70.00 17.7335 2.4856 0 
67 1 0.48 70.00 13.7136 2.8280 0 
68 1 0.47 70.00 27.6198 5.3037 0 
69 1 0.46 70.00 5.3844 8.4961 0 
70 1 0.50 70.00 13.4410 0.5031 0 
71 1 0.48 70.00 4.2776 2.7642 0 
72 1 0.48 70.00 24.3069 12.1825 0 
73 1 0.50 70.00 25.7516 1.3786 0 
74 1 0.43 70.00 17.9342 9.0627 0 
75 1 0.44 70.00 5.0306 9.7680 0 
76 1 0.43 70.00 17.5137 12.2226 0 
77 1 0.48 70.00 24.3853 1.2607 0 
78 1 0.53 70.00 3.3766 9.8672 0 
79 1 0.45 70.00 2.3679 13.4814 0 
80 1 0.50 70.00 12.7426 8.1788 0 
81 1 0.45 70.00 27.7596 10.8432 0 
82 1 0.47 70.00 1.7401 14.5354 0 
83 1 0.51 70.00 25.8235 5.3741 0 
84 1 0.46 70.00 17.6948 13.2084 0 
85 1 0.49 70.00 20.8959 14.2247 0 
86 1 0.46 70.00 11.4154 5.6254 0 
87 1 0.47 70.00 11.8258 9.2188 0 
88 1 0.50 70.00 24.1974 1.7395 0 
89 1 0.51 70.00 17.0142 4.8548 0 
90 1 0.49 70.00 16.8353 10.1542 0 
91 1 0.46 70.00 22.7555 4.6765 0 
92 1 0.45 70.00 3.1295 13.2153 0 
93 1 0.45 70.00 24.1525 8.7915 0 
94 1 0.49 70.00 4.9679 3.5118 0 
95 1 0.44 70.00 8.6153 7.8760 0 
96 1 0.46 70.00 14.9980 8.8086 0 
97 1 0.48 70.00 21.3483 8.1545 0 
98 1 0.50 70.00 2.7128 11.4994 0 
99 1 0.49 70.00 20.4054 5.4957 0 
100 1 0.49 70.00 17.3907 3.5934 0 
101 1 0.46 70.00 10.4181 6.7921 0 
102 1 0.45 70.00 17.6938 13.5093 0 
103 1 0.46 70.00 3.8524 10.8764 0 
104 1 0.49 70.00 3.1592 0.9924 0 
105 1 0.50 70.00 27.1727 13.3449 0 
106 1 0.47 70.00 5.9908 1.9090 0 
107 1 0.46 70.00 15.9734 9.5284 0 
108 1 0.48 70.00 25.2255 2.0168 0 
109 1 0.51 70.00 18.5539 10.7890 0 
110 1 0.51 70.00 0.6950 11.8237 0 
111 1 0.47 70.00 7.7998 5.5637 0 
112 1 0.46 70.00 16.0455 6.0605 0 
113 1 0.52 70.00 25.1848 9.8573 0 
114 1 0.44 70.00 26.7505 10.4782 0 
115 1 0.53 70.00 5.7659 7.8454 0 
116 1 0.49 70.00 7.2281 10.9815 0 
117 1 0.49 70.00 8.3006 2.1255 0 
118 1 0.45 70.00 2.9328 2.4058 0 
119 1 0.45 70.00 4.9245 2.4259 0 
120 1 0.42 70.00 26.8166 10.8647 0 
121 1 0.49 70.00 17.3049 12.4498 0 
122 1 0.46 70.00 18.0851 5.3219 0 
123 1 0.48 70.00 7.7084 6.1888 0 
124 1 0.43 70.00 14.6132 10.5654 0 
125 1 0.47 70.00 19.9864 14.4168 0 
126 1 0.53 70.00 20.3841 13.7209 0 
127 1 0.45 70.00 1.4977 7.0786 0 
128 1 0.45 70.00 5.1028 4.3962 0 
129 1 0.46 70.00 16.3985 5.0913 0 
130 1 0.43 70.00 17.8230 11.1369 0 
131 1 0.45 70.00 7.9152 6.8542 0 
132 1 0.49 70.00 18.8993 4.2535 0 
133 1 0.43 70.00 23.5014 5.5657 0 
134 1 0.53 70.00 1.8297 11.0591 0 
135 1 0.47 70.00 12.3041 1.6673 0 
136 1 0.46 70.00 6.0637 8.9977 0 
137 1 0.51 70.00 17.0813 9.7682 0 
138 1 0.52 70.00 14.8939 0.5855 0 
139 1 0.45 70.00 21.3353 0.5030 0 
140 1 0.48 70.00 19.7434 7.3085 0 
141 1 0.46 70.00 2.5694 7.5567 0 
142 1 0.48 70.00 14.0923 7.9423 0 
143 1 0.44 70.00 13.3804 8.2049 0 
144 1 0.46 70.00 14.6672 10.9827 0 
145 1 0.48 70.00 27.7636 12.2337 0 
146 1 0.51 70.00 13.1819 9.5139 0 
147 1 0.49 70.00 3.1535 5.0697 0 
148 1 0.45 70.00 22.2727 11.1525 0 
149 1 0.49 70.00 3.3968 13.2619 0 
150 1 0.43 70.00 1.5477 3.2985 0 
151 1 0.48 70.00 24.3075 7.5633 0 
152 1 0.46 70.00 5.3856 9.1811 0 
153 1 0.54 70.00 25.7088 2.1744 0 
154 1 0.49 70.00 1.2218 4.2933 0 
155 1 0.50 70.00 16.9974 12.2617 0 
156 1 0.50 70.00 7.3963 11.1779 0 
157 1 0.45 70.00 2.7210 1.3273 0 
158 1 0.46 70.00 8.9236 6.0579 0 
159 1 0.48 70.00 13.0305 8.4370 0 
160 1 0.47 70.00 6.5486 13.4712 0 
161 1 0.48 70.00 1.3811 2.8852 0 
162 1 0.46 70.00 4.1109 9.1030 0 
163 1 0.47 70.00 3.1141 12.2773 0 
164 1 0.44 70.00 1.1157 8.0816 0 
165 1 0.49 70.00 2.9010 7.4417 0 
166 1 0.51 70.00 12.4092 1.4832 0 
167 1 0.47 70.00 6.7690 7.4581 0 
168 1 0.39 70.00 13.7752 5.3218 0 
169 1 0.45 70.00 18.5666 11.1203 0 
170 1 0.45 70.00 21.1714 12.5970 0 
171 1 0.43 70.00 3.6952 5.1487 0 
172 1 0.47 70.00 3.3386 1.8410 0 
173 1 0.47 70.00 21.4200 4.5545 0 
174 1 0.49 70.00 5.6690 10.9360 0 
175 1 0.45 70.00 3.5928 4.3881 0 
176 1 0.54 70.00 2.4280 3.1746 0 
177 1 0.48 70.00 11.8533 4.6985 0 
178 1 0.47 70.00 21.6002 5.6275 0 
179 1 0.47 70.00 20.1209 7.4181 0 
180 1 0.41 70.00 22.9343 7.1955 0 
181 1 0.51 70.00 9.5947 12.2263 0 
182 1 0.46 70.00 9.0887 11.3874 0 
183 1 0.45 70.00 11.8859 5.4843 0 
184 1 0.46 70.00 2.5500 4.8597 0 
185 1 0.49 70.00 26.9397 3.1051 0 
186 1 0.48 70.00 3.2330 11.5039 0 
187 1 0.47 70.00 20.7169 2.4327 0 
188 1 0.51 70.00 2.3417 5.5449 0 
189 1 0.47 70.00 24.0019 6.9773 0 
190 1 0.44 70.00 27.1219 3.6736 0 
191 1 0.44 70.00 16.4020 6.7867 0 
192 1 0.45 70.00 6.5185 5.2477 0 
193 1 0.43 70.00 17.4803 4.8067 0 
194 1 0.48 70.00 16.6529 7.5663 0 
195 1 0.45 70.00 6.7036 7.1693 0 
196 1 0.45 70.00 3.1936 7.9184 0 
197 1 0.44 70.00 10.6246 6.9956 0 
198 1 0.50 70.00 4.1707 7.9911 0 
199 1 0.48 70.00 11.6197 8.8444 0 
200 1 0.50 70.00 8.5245 12.4507 0 
201 1 0.44 70.00 14.8032 4.1897 0 
202 1 0.44 70.00 1.2969 0.5300 0 
203 1 0.45 70.00 4.2340 8.7091 0 
204 1 0.48 70.00 13.8227 4.5176 0 
205 1 0.46 70.00 3.0454 7.6239 0 
206 1 0.44 70.00 19.0019 5.4264 0 
207 1 0.47 70.00 23.1421 5.4765 0 
208 1 0.44 70.00 27.3698 6.5833 0 
209 1 0.41 70.00 23.2362 12.0779 0 
210 1 0.47 70.00 6.2115 12.7453 0 
211 1 0.41 70.00 8.9446 10.6539 0 
212 1 0.46 70.00 16.3511 7.4669 0 
213 1 0.51 70.00 5.8269 8.4569 0 
214 1 0.47 70.00 21.1695 12.3201 0 
215 1 0.55 70.00 6.6509 12.1340 0 
216 1 0.48 70.00 7.2598 2.8506 0 
217 1 0.46 70.00 1.6192 4.1898 0 
218 1 0.40 70.00 8.1887 5.3076 0 
219 1 0.53 70.00 10.9209 8.6582 0 
220 1 0.43 70.00 20.6438 13.1838 0 
221 1 0.47 70.00 13.1123 12.2945 0 
222 1 0.47 70.00 15.0861 9.0868 0 
223 1 0.45 70.00 21.0925 7.7972 0 
224 1 0.49 70.00 15.7705 2.1884 0 
225 1 0.44 70.00 9.7990 4.0956 0 
226 1 0.43 70.00 1.3010 1.2793 0 
227 1 0.46 70.00 21.9831 9.0295 0 
228 1 0.49 70.00 2.0897 1.5901 0 
229 1 0.43 70.00 5.0258 12.7082 0 
230 1 0.50 70.00 1.1404 4.5213 0 
231 1 0.45 70.00 26.1163 4.4951 0 
232 1 0.44 70.00 5.8614 12.2000 0 
233 1 0.44 70.00 21.3917 5.1845 0 
234 1 0.49 70.00 4.3780 12.9934 0 
235 1 0.48 70.00 15.6698 4.0320 0 
236 1 0.51 70.00 24.2610 9.0280 0 
237 1 0.47 70.00 27.2020 4.3767 0 
238 1 0.44 70.00 19.5405 1.8595 0 
239 1 0.48 70.00 6.2387 10.4143 0 
240 1 0.47 70.00 25.5607 1.5440 0 
241 1 0.44 70.00 27.6869 7.0287 0 
242 1 0.48 70.00 25.7851 2.6016 0 
243 1 0.38 70.00 1.8103 5.8383 0 
244 1 0.45 70.00 25.1675 11.8371 0 
245 1 0.51 70.00 21.4560 6.1010 0 
246 1 0.50 70.00 13.3738 6.6798 0 
247 1 0.47 70.00 8.5245 5.2574 0 
248 1 0.46 70.00 19.8383 11.6880 0 
249 1 0.46 70.00 10.1013 5.7353 0 
250 1 0.44 70.00 12.8219 5.5121 0 
251 1 0.54 70.00 5.3556 2.5184 0 
252 1 0.43 70.00 6.5290 12.5515 0 
253 1 0.53 70.00 11.8522 7.3365 0 
254 1 0.45 70.00 6.0841 10.0802 0 
255 1 0.43 70.00 15.1415 5.1192 0 
256 1 0.50 70.00 16.2216 3.2207 0 
257 1 0.45 70.00 24.4895 11.4706 0 
258 1 0.50 70.00 23.1479 11.5310 0 
259 1 0.48 70.00 24.8445 1.0437 0 
260 1 0.49 70.00 21.8963 14.0706 0 
261 1 0.44 70.00 15.7898 1.0174 0 
262 1 0.53 70.00 23.0349 9.5721 0 
263 1 0.45 70.00 25.9178 12.0413 0 
264 1 0.42 70.00 17.1124 3.2759 0 
265 1 0.51 70.00 19.9193 10.7133 0 
266 1 0.49 70.00 27.4797 14.3309 0 
267 1 0.51 70.00 27.0496 13.9450 0 
268 1 0.45 70.00 0.9847 4.8907 0 
269 1 0.50 70.00 22.5014 14.1769 0 
270 1 0.48 70.00 24.7735 8.5686 0 
271 1 0.48 70.00 8.6772 1.9879 0 
272 1 0.51 70.00 21.0083 8.6788 0 
273 1 0.43 70.00 20.5705 6.8152 0 
274 1 0.41 70.00 18.1299 13.4039 0 
275 1 0.46 70.00 5.1361 5.6367 0 
276 1 0.49 70.00 18.7675 12.3670 0 
277 1 0.48 70.00 10.9782 4.2700 0 
278 1 0.44 70.00 11.8854 12.2815 0 
279 1 0.42 70.00 13.3181 6.0400 0 
280 1 0.44 70.00 4.7043 4.0437 0 
281 1 0.47 70.00 14.9617 3.7632 0 
282 1 0.50 70.00 0.9385 8.7686 0 
283 1 0.41 70.00 7.9099 12.0546 0 
284 1 0.51 70.00 2.2976 13.9051 0 
285 1 0.51 70.00 21.9073 4.0555 0 
286 1 0.49 70.00 26.9366 12.3049 0 
287 1 0.49 70.00 22.5079 14.4387 0 
288 1 0.47 70.00 20.2769 8.9856 0 
289 1 0.45 70.00 23.6386 8.7389 0 
290 1 0.54 70.00 10.7124 11.1469 0 
291 1 0.47 70.00 1.3737 2.5994 0 
292 1 0.43 70.00 15.9449 8.7188 0 
293 1 0.49 70.00 7.1959 5.5172 0 
294 1 0.46 70.00 15.6916 12.1207 0 
295 1 0.49 70.00 20.6035 3.1290 0 
296 1 0.43 70.00 27.3764 12.3907 0 
297 1 0.49 70.00 9.1053 13.3012 0 
298 1 0.48 70.00 11.3205 4.3618 0 
299 1 0.46 70.00 14.8673 2.2143 0 
300 1 0.43 70.00 25.2185 10.3493 0 
301 1 0.50 70.00 25.4796 3.7648 0 
302 1 0.45 70.00 23.9268 13.8041 0 
303 1 0.44 70.00 16.4386 4.3015 0 
304 1 0.45 70.00 14.0800 11.0863 0 
305 1 0.43 70.00 10.3994 7.2522 0 
306 1 0.48 70.00 16.5604 1.2154 0 
307 1 0.48 70.00 23.6506 4.5644 0 
308 1 0.44 70.00 0.7164 3.1673 0 
309 1 0.51 70.00 3.6961 3.4509 0 
310 1 0.51 70.00 23.4127 2.3739 0 
311 1 0.44 70.00 6.8649 14.7808 0 
312 1 0.47 70.00 9.8175 10.9857 0 
313 1 0.51 70.00 17.7578 4.6256 0 
314 1 0.46 70.00 1.3216 11.7223 0 
315 1 0.50 70.00 4.4707 11.4578 0 
316 1 0.49 70.00 16.6701 7.9959 0 
317 1 0.45 70.00 20.9675 12.0460 0 
318 1 0.45 70.00 9.1795 7.6227 0 
319 1 0.51 70.00 3.7238 7.5257 0 
320 1 0.53 70.00 23.1105 11.7396 0 
321 1 0.45 70.00 21.7222 2.5392 0 
322 1 0.46 70.00 6.6544 1.3112 0 
323 1 0.48 70.00 9.9442 12.1981 0 
324 1 0.46 70.00 16.5622 12.6902 0 
325 1 0.51 70.00 12.7879 3.1215 0 
326 1 0.44 70.00 16.1482 1.2226 0 
327 1 0.45 70.00 6.9349 6.6951 0 
328 1 0.44 70.00 1.9995 5.2927 0 
329 1 0.43 70.00 9.2932 6.1797 0 
330 1 0.46 70.00 12.3386 13.9209 0 
331 1 0.50 70.00 8.2027 1.4687 0 
332 1 0.52 70.00 12.5627 1.9016 0 
333 1 0.49 70.00 4.6323 4.4050 0 
334 1 0.49 70.00 18.6930 7.8918 0 
335 1 0.51 70.00 0.9767 4.2517 0 
336 1 0.45 70.00 7.7473 4.1139 0 
337 1 0.51 70.00 22.0958 10.8536 0 
338 1 0.46 70.00 4.6051 14.4202 0 
339 1 0.44 70.00 18.9305 2.0482 0 
340 1 0.54 70.00 4.3843 6.6483 0 
341 1 0.47 70.00 3.6029 13.3922 0 
342 1 0.50 70.00 9.0375 9.0432 0 
343 1 0.48 70.00 12.6568 11.6374 0 
344 1 0.48 70.00 5.7985 3.2816 0 
345 1 0.49 70.00 13.9015 7.5558 0 
346 1 0.50 70.00 9.5956 13.8148 0 
347 1 0.43 70.00 27.1855 2.5738 0 
348 1 0.53 70.00 4.8028 0.9898 0 
349 1 0.53 70.00 21.0009 6.9065 0 
350 1 0.45 70.00 14.5128 1.3905 0 
351 1 0.51 70.00 21.3399 2.5544 0 
352 1 0.48 70.00 25.7228 3.0787 0 
353 1 0.50 70.00 23.0246 7.4528 0 
354 1 0.51 70.00 7.4648 2.3237 0 
355 1 0.48 70.00 20.7625 7.7073 0 
356 1 0.47 70.00 11.4255 6.0919 0 
357 1 0.51 70.00 16.5458 2.1326 0 
358 1 0.47 70.00 14.2335 1.3943 0 
359 1 0.46 70.00 10.6911 3.6691 0 
360 1 0.43 70.00 1.8442 9.8858 0 
361 1 0.49 70.00 18.2418 1.2798 0 
362 1 0.45 70.00 17.2862 0.7447 0 
363 1 0.48 70.00 19.9812 13.0875 0 
364 1 0.44 70.00 18.4757 13.3277 0 
365 1 0.48 70.00 4.4197 10.8536 0 
366 1 0.50 70.00 11.6207 2.9292 0 
367 1 0.44 70.00 9.3625 1.9787 0 
368 1 0.47 70.00 27.1793 8.2963 0 
369 1 0.51 70.00 3.0806 6.1717 0 
370 1 0.43 70.00 1.6177 12.0581 0 
371 1 0.50 70.00 26.1311 2.6982 0 
372 1 0.52 70.00 7.9145 10.9545 0 
373 1 0.44 70.00 3.2253 4.5217 0 
374 1 0.46 70.00 8.7389 3.8935 0 
375 1 0.45 70.00 17.9607 9.2998 0 
376 1 0.51 70.00 11.9564 2.6608 0 
377 1 0.48 70.00 6.8261 2.0541 0 
378 1 0.47 70.00 3.1508 13.8751 0 
379 1 0.45 70.00 26.6599 10.1572 0 
380 1 0.51 70.00 20.6243 4.8834 0 
381 1 0.48 70.00 3.0894 10.3285 0 
382 1 0.51 70.00 23.1034 0.6237 0 
383 1 0.43 70.00 25.8538 5.7710 0 
384 1 0.50 70.00 13.6486 5.5922 0 
385 1 0.48 70.00 14.7136 6.0589 0 
386 1 0.46 70.00 27.7108 4.7239 0 
387 1 0.47 70.00 8.2833 14.5350 0 
388 1 0.48 70.00 16.8612 2.7858 0 
389 1 0.42 70.00 15.3335 2.5541 0 
390 1 0.48 70.00 6.3218 6.0651 0 
391 1 0.49 70.00 5.9363 4.8594 0 
392 1 0.46 70.00 1.3408 11.9439 0 
393 1 0.48 70.00 20.1342 13.8375 0 
394 1 0.51 70.00 21.3718 13.1002 0 
395 1 0.45 70.00 8.7080 8.7090 0 
396 1 0.50 70.00 19.4901 3.3963 0 
397 1 0.49 70.00 15.8502 6.5057 0 
398 1 0.47 70.00 9.8490 6.4636 0 
399 1 0.47 70.00 2.5145 13.2123 0 
400 1 0.47 70.00 22.8484 2.7125 0 
401 1 0.49 70.00 4.0232 4.1298 0 
402 1 0.50 70.00 6.2041 5.2879 0 
403 1 0.49 70.00 22.1695 4.3677 0 
404 1 0.47 70.00 24.6644 13.1128 0 
405 1 0.49 70.00 11.0949 10.4278 0 
406 1 0.49 70.00 27.2631 9.4615 0 
407 1 0.53 70.00 23.8947 13.5967 0 
408 1 0.46 70.00 16.5039 13.0964 0 
409 1 0.49 70.00 3.9563 1.1660 0 
410 1 0.50 70.00 4.6991 7.9527 0 
411 1 0.49 70.00 1.4569 6.2671 0 
412 1 0.46 70.00 11.3592 6.9233 0 
413 1 0.44 70.00 23.5057 12.1125 0 
414 1 0.49 70.00 20.7613 1.7378 0 
415 1 0.48 70.00 26.1298 1.7873 0 
416 1 0.43 70.00 12.9232 4.9568 0 
417 1 0.47 70.00 15.1054 13.6537 0 
418 1 0.53 70.00 12.9799 7.1077 0 
419 1 0.48 70.00 25.6145 7.9425 0 
420 1 0.50 70.00 10.1079 8.4354 0 
421 1 0.52 70.00 26.0590 14.4743 0 
422 1 0.45 70.00 9.9436 1.8229 0 
423 1 0.47 70.00 5.9085 9.7347 0 
424 1 0.45 70.00 16.2435 2.3080 0 
425 1 0.48 70.00 25.8781 12.9452 0 
426 1 0.50 70.00 16.9732 12.5260 0 
427 1 0.45 70.00 22.1080 9.4539 0 
428 1 0.45 70.00 27.2602 2.1165 0 
429 1 0.50 70.00 11.5642 3.4120 0 
430 1 0.46 70.00 7.0119 8.2432 0 
431 1 0.47 70.00 3.1772 12.9390 0 
432 1 0.45 70.00 2.2546 7.9827 0 
433 1 0.46 70.00 26.6354 6.6570 0 
434 1 0.47 70.00 19.3215 2.7356 0 
435 1 0.51 70.00 15.8567 13.9058 0 
436 1 0.48 70.00 9.6600 8.4488 0 
437 1 0.47 70.00 14.3436 13.2208 0 
438 1 0.52 70.00 1.3863 0.8050 0 
439 1 0.54 70.00 19.8348 6.1087 0 
440 1 0.50 70.00 0.5270 5.3342 0 
441 1 0.46 70.00 26.4327 11.9621 0 
442 1 0.51 70.00 1.4010 9.9254 0 
443 1 0.48 70.00 6.8264 5.2231 0 
444 1 0.48 70.00 14.5460 13.9908 0 
445 1 0.53 70.00 14.9254 2.8344 0 
446 1 0.46 70.00 14.5972 14.7892 0 
447 1 0.49 70.00 10.2440 5.2029 0 
448 1 0.48 70.00 5.0477 8.7365 0 
449 1 0.47 70.00 13.6229 9.6261 0 
450 1 0.41 70.00 9.6659 5.8745 0 
451 1 0.46 70.00 11.1853 9.9259 0 
452 1 0.42 70.00 17.3707 4.2594 0 
453 1 0.50 70.00 15.9616 14.6384 0 
454 1 0.45 70.00 13.1855 13.0873 0 
455 1 0.49 70.00 24.9006 4.0577 0 
456 1 0.45 70.00 17.3914 7.3421 0 
457 1 0.45 70.00 22.3741 8.6105 0 
458 1 0.45 70.00 15.4396 9.2504 0 
459 1 0.49 70.00 17.2293 7.4742 0 
460 1 0.49 70.00 17.7401 13.9910 0 
461 1 0.51 70.00 9.7259 13.0603 0 
462 1 0.49 70.00 27.1456 13.5519 0 
463 1 0.52 70.00 25.9953 10.3291 0 
464 1 0.48 70.00 5.8486 6.1009 0 
465 1 0.48 70.00 10.1794 10.1561 0 
466 1 0.46 70.00 12.2382 5.4390 0 
467 1 0.43 70.00 9.1387 5.9213 0 
468 1 0.46 70.00 20.2832 14.5457 0 
469 1 0.49 70.00 6.9449 0.8998 0 
470 1 0.52 70.00 3.1667 6.8933 0 
471 1 0.46 70.00 23.5537 11.0815 0 
472 1 0.46 70.00 8.9771 6.7056 0 
473 1 0.47 70.00 8.3699 2.3818 0 
474 1 0.46 70.00 12.0170 4.3660 0 
475 1 0.53 70.00 1.0156 7.1131 0 
476 1 0.44 70.00 7.9312 5.1548 0 
477 1 0.50 70.00 19.9685 13.3344 0 
478 1 0.48 70.00 3.7537 14.3163 0 
479 1 0.51 70.00 16.6888 14.5633 0 
480 1 0.50 70.00 18.2214 6.9069 0 
481 1 0.46 70.00 20.3778 6.5544 0 
482 1 0.46 70.00 23.4923 6.7579 0 
483 1 0.46 70.00 24.6407 4.1799 0 
484 1 0.49 70.00 16.8557 13.2199 0 
485 1 0.47 70.00 1.9321 6.3688 0 
486 1 0.49 70.00 19.4519 4.0375 0 
487 1 0.47 70.00 8.5899 10.0323 0 
488 1 0.47 70.00 2.3212 12.7477 0 
489 1 0.44 70.00 1.6282 9.4877 0 
490 1 0.49 70.00 18.3793 9.1390 0 
491 1 0.49 70.00 8.0941 5.6939 0 
492 1 0.45 70.00 25.4139 4.9343 0 
493 1 0.47 70.00 13.5452 8.6475 0 
494 1 0.46 70.00 1.1337 12.5504 0 
495 1 0.47 70.00 2.0114 4.5049 0 
496 1 0.48 70.00 27.5957 6.5531 0 
497 1 0.52 70.00 10.8903 9.2775 0 
498 1 0.48 70.00 25.8161 14.2065 0 
499 1 0.46 70.00 10.3388 2.7391 0 
500 1 0.45 70.00 25.2478 12.6407 0 
501 1 0.50 70.00 20.9983 14.7963 0 
502 1 0.47 70.00 17.3287 8.9294 0 
503 1 0.45 70.00 15.1268 4.2865 0 
504 1 0.49 70.00 14.3893 0.7510 0 
505 1 0.50 70.00 14.2088 9.7645 0 
506 1 0.46 70.00 19.7172 6.2843 0 
507 1 0.49 70.00 21.8935 0.7145 0 
508 1 0.48 70.00 2.2472 10.5688 0 
509 1 0.47 70.00 26.9127 1.4165 0 
510 1 0.49 70.00 0.5522 5.1157 0 
511 1 0.49 70.00 13.0947 5.4978 0 
512 1 0.48 70.00 26.5555 1.5911 0 
513 1 0.44 70.00 7.3064 9.5849 0 
514 1 0.44 70.00 14.9644 12.1995 0 
515 1 0.44 70.00 19.7499 2.7438 0 
516 1 0.47 70.00 23.3227 7.3824 0 
517 1 0.48 70.00 18.8597 10.4342 0 
518 1 0.50 70.00 26.7378 2.8306 0 
519 1 0.48 70.00 17.9341 3.5827 0 
520 1 0.43 70.00 21.4360 12.0230 0 
521 1 0.48 70.00 5.5826 4.2491 0 
522 1 0.46 70.00 7.5501 6.0198 0 
523 1 0.46 70.00 9.1342 7.3589 0 
524 1 0.49 70.00 24.3729 5.5393 0 
525 1 0.53 70.00 14.5364 3.6594 0 
526 1 0.44 70.00 6.6677 4.0314 0 
527 1 0.51 70.00 25.5039 5.1289 0 
528 1 0.45 70.00 11.3689 0.8317 0 
529 1 0.46 70.00 22.4953 12.3390 0 
530 1 0.42 70.00 11.0847 13.0343 0 
531 1 0.47 70.00 0.9312 7.6084 0 
532 1 0.43 70.00 11.8659 9.9587 0 
533 1 0.46 70.00 23.8866 10.7752 0 
534 1 0.50 70.00 27.3111 14.6296 0 
535 1 0.44 70.00 3.5821 1.1110 0 
536 1 0.44 70.00 17.0525 6.9054 0 
537 1 0.47 70.00 21.8559 3.0315 0 
538 1 0.47 70.00 14.1685 8.2041 0 
539 1 0.47 70.00 3.8003 1.0242 0 
540 1 0.46 70.00 23.2931 7.6046 0 
541 1 0.47 70.00 18.5065 4.4998 0 
542 1 0.46 70.00 23.6508 3.0929 0 
543 1 0.49 70.00 22.2323 1.1827 0 
544 1 0.47 70.00 11.4589 10.6234 0 
545 1 0.43 70.00 21.0963 13.3647 0 
546 1 0.44 70.00 22.7022 2.0674 0 
547 1 0.53 70.00 17.7276 14.2423 0 
548 1 0.47 70.00 19.9545 1.1955 0 
549 1 0.51 70.00 18.8192 11.1049 0 
550 1 0.50 70.00 17.9202 10.6605 0 
551 1 0.53 70.00 6.8968 11.6610 0 
552 1 0.47 70.00 26.8168 0.9390 0 
553 1 0.44 70.00 3.9050 2.3897 0 
554 1 0.53 70.00 4.7853 11.4420 0 
555 1 0.46 70.00 4.5740 9.6111 0 
556 1 0.53 70.00 21.7986 6.7195 0 
557 1 0.53 70.00 20.8056 0.5733 0 
558 1 0.52 70.00 10.2566 7.5723 0 
559 1 0.45 70.00 27.7640 14.4103 0 
560 1 0.42 70.00 9.4184 14.6273 0 
561 1 0.48 70.00 19.3183 1.3562 0 
562 1 0.47 70.00 5.4791 10.8351 0 
563 1 0.44 70.00 6.2930 1.9062 0 
564 1 0.46 70.00 5.0778 4.0029 0 
565 1 0.45 70.00 15.6084 13.4294 0 
566 1 0.45 70.00 15.1006 7.2241 0 
567 1 0.47 70.00 19.6184 1.3790 0 
568 1 0.46 70.00 23.2547 4.1523 0 
569 1 0.42 70.00 6.9996 7.6255 0 
570 1 0.46 70.00 12.4706 12.8494 0 
571 1 0.39 70.00 7.0121 13.9538 0 
572 1 0.51 70.00 4.4249 14.0153 0 
573 1 0.48 70.00 10.9539 1.1038 0 
574 1 0.47 70.00 1.7919 14.2989 0 
575 1 0.49 70.00 1.2653 1.9376 0 
576 1 0.43 70.00 21.7377 2.7834 0 
577 1 0.53 70.00 20.8862 6.0260 0 
578 1 0.49 70.00 7.2113 6.3475 0 
579 1 0.47 70.00 12.1949 12.8440 0 
580 1 0.45 70.00 3.6997 12.4999 0 
581 1 0.50 70.00 13.4279 12.9846 0 
582 1 0.52 70.00 12.3587 3.8479 0 
583 1 0.45 70.00 11.1900 8.4158 0 
584 1 0.45 70.00 22.7482 4.0248 0 
585 1 0.52 70.00 15.7078 1.5377 0 
586 1 0.51 70.00 10.7309 0.9692 0 
587 1 0.45 70.00 16.7417 5.7256 0 
588 1 0.46 70.00 12.3450 12.0218 0 
589 1 0.47 70.00 20.9117 4.0465 0 
590 1 0.48 70.00 3.2254 13.4121 0 
591 1 0.51 70.00 21.5287 6.8211 0 
592 1 0.47 70.00 18.6782 4.3469 0 
593 1 0.49 70.00 17.4857 11.4720 0 
594 1 0.48 70.00 26.1529 4.0993 0 
595 1 0.51 70.00 14.3903 7.3501 0 
596 1 0.49 70.00 22.3364 10.3460 0 
597 1 0.50 70.00 17.8650 14.4438 0 
598 1 0.45 70.00 4.8568 12.4076 0 
599 1 0.47 70.00 1.6212 12.4654 0 
600 1 0.50 70.00 25.5482 11.4679 0 
601 1 0.42 70.00 1.5788 10.7961 0 
602 1 0.55 70.00 17.2446 14.3984 0 
603 1 0.49 70.00 13.8127 6.3884 0 
604 1 0.48 70.00 17.8487 2.9775 0 
605 1 0.52 70.00 14.6915 5.0196 0 
606 1 0.51 70.00 8.5881 8.9123 0 
607 1 0.47 70.00 26.3965 9.6025 0 
608 1 0.47 70.00 14.7123 3.4227 0 
609 1 0.40 70.00 7.8444 10.4698 0 
610 1 0.47 70.00 16.1327 9.0879 0 
611 1 0.42 70.00 10.7534 6.6344 0 
612 1 0.44 70.00 26.1700 12.0503 0 
613 1 0.55 70.00 2.7377 11.8701 0 
614 1 0.50 70.00 14.5078 6.0401 0 
615 1 0.52 70.00 24.1013 9.2907 0 
616 1 0.45 70.00 20.5646 4.2045 0 
617 1 0.44 70.00 7.9030 7.4855 0 
618 1 0.49 70.00 10.3933 1.7666 0 
619 1 0.51 70.00 15.1582 4.7288 0 
620 1 0.46 70.00 24.1238 10.5000 0 
621 1 0.44 70.00 11.4722 14.2896 0 
622 1 0.47 70.00 4.0951 13.9782 0 
623 1 0.50 70.00 12.8981 3.5951 0 
624 1 0.45 70.00 7.5603 13.6940 0 
625 1 0.50 70.00 4.1320 4.4311 0 
626 1 0.43 70.00 26.6820 13.9652 0 
627 1 0.49 70.00 13.6027 11.0330 0 
628 1 0.45 70.00 24.2062 4.6263 0 
629 1 0.50 70.00 24.1520 8.2488 0 
630 1 0.47 70.00 15.1840 14.2705 0 
631 1 0.40 70.00 5.6191 2.0538 0 
632 1 0.49 70.00 18.5042 0.6633 0 
633 1 0.49 70.00 18.5111 10.3021 0 
634 1 0.53 70.00 10.1759 6.3433 0 
635 1 0.46 70.00 7.0900 5.7687 0 
636 1 0.49 70.00 4.1555 14.3469 0 
637 1 0.46 70.00 18.9930 4.7552 0 
638 1 0.45 70.00 2.2986 1.3687 0 
639 1 0.50 70.00 23.2129 5.2623 0 
640 1 0.42 70.00 15.5281 14.2021 0 
641 1 0.43 70.00 10.2987 5.9045 0 
642 1 0.47 70.00 8.4684 2.5584 0 
643 1 0.47 70.00 17.7470 4.2680 0 
644 1 0.45 70.00 15.0625 14.6120 0 
645 1 0.50 70.00 19.3912 10.4120 0 
646 1 0.46 70.00 3.5548 2.7796 0 
647 1 0.41 70.00 22.6993 5.6565 0 
648 1 0.51 70.00 15.3356 7.2056 0 
649 1 0.47 70.00 11.2452 3.1749 0 
650 1 0.52 70.00 26.7359 11.4066 0 
651 1 0.46 70.00 7.7486 11.5706 0 
652 1 0.52 70.00 21.3198 7.3144 0 
653 1 0.53 70.00 4.2785 1.2526 0 
654 1 0.51 70.00 13.5274 8.0394 0 
655 1 0.45 70.00 24.1324 2.4826 0 
656 1 0.48 70.00 24.6810 11.7423 0 
657 1 0.44 70.00 25.9273 8.6762 0 
658 1 0.49 70.00 25.1690 13.2861 0 
659 1 0.44 70.00 5.9241 5.3451 0 
660 1 0.47 70.00 26.2868 12.7616 0 
661 1 0.49 70.00 5.4972 2.9428 0 
662 1 0.48 70.00 6.6441 0.9488 0 
663 1 0.43 70.00 20.8942 4.4998 0 
664 1 0.44 70.00 10.4721 6.1995 0 
665 1 0.49 70.00 6.0233 6.8565 0 
666 1 0.50 70.00 16.5893 7.1375 0 
667 1 0.48 70.00 23.3447 1.1982 0 
668 1 0.48 70.00 4.4831 10.0274 0 
669 1 0.51 70.00 7.7096 13.8862 0 
670 1 0.54 70.00 19.1492 9.8827 0 
671 1 0.47 70.00 5.5782 8.1624 0 
672 1 0.45 70.00 11.0005 6.2859 0 
673 1 0.49 70.00 13.8382 1.1915 0 
674 1 0.45 70.00 5.2286 14.0460 0 
675 1 0.51 70.00 25.3122 3.0148 0 
676 1 0.49 70.00 4.2662 13.1657 0 
677 1 0.45 70.00 16.9844 11.3671 0 
678 1 0.44 70.00 26.1475 9.5252 0 
679 1 0.48 70.00 26.4475 8.0635 0 
680 1 0.46 70.00 8.0074 12.7020 0 
681 1 0.46 70.00 12.8627 12.6634 0 
682 1 0.46 70.00 6.0392 1.2013 0 
683 1 0.46 70.00 21.2209 6.6292 0 
684 1 0.46 70.00 25.9802 14.6814 0 
685 1 0.43 70.00 1.5926 5.6166 0 
686 1 0.45 70.00 18.0818 5.9435 0 
687 1 0.50 70.00 11.9054 10.8223 0 
688 1 0.51 70.00 23.1104 8.4720 0 
689 1 0.45 70.00 4.3200 11.2475 0 
690 1 0.47 70.00 22.9797 3.9315 0 
691 1 0.49 70.00 8.6126 9.3973 0 
692 1 0.43 70.00 21.0786 5.7055 0 
693 1 0.42 70.00 16.9595 11.0391 0 
694 1 0.48 70.00 7.1015 3.9695 0 
695 1 0.43 70.00 3.0599 9.4928 0 
696 1 0.46 70.00 18.3692 5.1098 0 
697 1 0.42 70.00 26.1741 7.1709 0 
698 1 0.44 70.00 7.7168 13.2353 0 
699 1 0.49 70.00 12.8272 2.1493 0 
700 1 0.48 70.00 21.9459 8.6054 0 
701 1 0.44 70.00 18.6157 1.0168 0 
702 1 0.49 70.00 24.7091 12.4195 0 
703 1 0.44 70.00 6.9799 4.5353 0 
704 1 0.48 70.00 2.9805 12.8360 0 
705 1 0.49 70.00 10.5689 5.6865 0 
706 1 0.50 70.00 8.5703 11.9747 0 
707 1 0.50 70.00 18.0595 12.8185 0 
708 1 0.53 70.00 5.3649 6.8855 0 
709 1 0.49 70.00 7.1052 13.3861 0 
710 1 0.49 70.00 3.4730 9.4032 0 
711 1 0.46 70.00 7.7702 14.6805 0 
712 1 0.53 70.00 27.5492 11.1363 0 
713 1 0.46 70.00 16.2058 4.5431 0 
714 1 0.43 70.00 19.4367 3.0206 0 
715 1 0.48 70.00 15.0554 13.2611 0 
716 1 0.43 70.00 18.9843 14.1181 0 
717 1 0.42 70.00 6.9963 4.7663 0 
718 1 0.47 70.00 12.9507 12.8838 0 
719 1 0.48 70.00 8.7009 4.9061 0 
720 1 0.49 70.00 3.2074 11.0174 0 
721 1 0.46 70.00 16.7949 14.2973 0 
722 1 0.45 70.00 11.4500 3.6176 0 
723 1 0.52 70.00 1.6498 8.7021 0 
724 1 0.47 70.00 9.2842 3.6422 0 
725 1 0.48 70.00 3.8438 11.9238 0 
726 1 0.45 70.00 16.8439 8.2758 0 
727 1 0.46 70.00 22.6451 4.3053 0 
728 1 0.48 70.00 16.2142 3.0174 0 
729 1 0.50 70.00 5.0846 6.0972 0 
730 1 0.48 70.00 8.6735 2.8003 0 
731 1 0.43 70.00 2.7393 8.6476 0 
732 1 0.50 70.00 24.3905 3.7871 0 
733 1 0.43 70.00 2.9014 6.5891 0 
734 1 0.48 70.00 3.5190 14.7273 0 
735 1 0.46 70.00 12.9956 7.3164 0 
736 1 0.43 70.00 27.5552 0.8471 0 
737 1 0.46 70.00 25.5219 3.1963 0 
738 1 0.50 70.00 5.6026 2.3243 0 
739 1 0.44 70.00 25.1683 6.9641 0 
740 1 0.49 70.00 10.2208 8.8091 0 
741 1 0.48 70.00 12.6670 6.3427 0 
742 1 0.46 70.00 21.5955 7.1655 0 
743 1 0.46 70.00 12.4744 4.0237 0 
744 1 0.42 70.00 6.3281 3.5427 0 
745 1 0.42 70.00 14.9359 6.6688 0 
746 1 0.46 70.00 1.2403 10.6114 0 
747 1 0.44 70.00 8.8792 6.3643 0 
748 1 0.53 70.00 23.9327 1.6148 0 
749 1 0.46 70.00 16.3219 1.6301 0 
750 1 0.45 70.00 25.0940 14.0373 0 
751 1 0.47 70.00 21.7882 8.8617 0 
752 1 0.50 70.00 8.7700 5.1543 0 
753 1 0.48 70.00 8.6270 5.9748 0 
754 1 0.48 70.00 25.2682 10.9352 0 
755 1 0.49 70.00 19.1531 10.8294 0 
756 1 0.51 70.00 4.4340 7.6209 0 
757 1 0.47 70.00 21.2159 8.8849 0 
758 1 0.45 70.00 26.4864 1.7854 0 
759 1 0.44 70.00 2.9910 3.7448 0 
760 1 0.45 70.00 17.6544 7.8452 0 
761 1 0.49 70.00 6.4895 8.1722 0 
762 1 0.46 70.00 15.9520 3.0586 0 
763 1 0.50 70.00 14.9983 7.6927 0 
764 1 0.48 70.00 17.4898 2.6911 0 
765 1 0.48 70.00 3.7528 8.2609 0 
766 1 0.49 70.00 9.4914 6.6877 0 
767 1 0.51 70.00 23.7655 1.2940 0 
768 1 0.48 70.00 21.2847 4.8479 0 
769 1 0.54 70.00 8.8428 2.5508 0 
770 1 0.46 70.00 16.4505 3.1552 0 
771 1 0.49 70.00 8.5998 12.2323 0 
772 1 0.49 70.00 7.6533 1.5196 0 
773 1 0.49 70.00 26.6091 4.9337 0 
774 1 0.46 70.00 24.2969 2.1204 0 
775 1 0.49 70.00 1.4488 14.1677 0 
776 1 0.41 70.00 9.9391 4.3050 0 
777 1 0.45 70.00 5.2156 7.0617 0 
778 1 0.48 70.00 9.0588 1.9780 0 
779 1 0.46 70.00 24.5280 3.0575 0 
780 1 0.48 70.00 3.6968 7.7980 0 
781 1 0.44 70.00 13.7995 6.7202 0 
782 1 0.44 70.00 12.6842 2.8830 0 
783 1 0.48 70.00 13.0157 8.2270 0 
784 1 0.47 70.00 2.1461 0.9023 0 
785 1 0.43 70.00 11.0699 2.3310 0 
786 1 0.46 70.00 1.7943 7.8587 0 
787 1 0.50 70.00 21.6596 10.5270 0 
788 1 0.44 70.00 12.0818 10.6675 0 
789 1 0.49 70.00 18.4413 3.4357 0 
790 1 0.46 70.00 12.1755 1.0308 0 
791 1 0.52 70.00 6.3111 6.8752 0 
792 1 0.48 70.00 4.8965 3.0020 0 
793 1 0.48 70.00 24.7112 5.5788 0 
794 1 0.46 70.00 20.0889 9.9120 0 
795 1 0.44 70.00 13.6116 11.4029 0 
796 1 0.46 70.00 1.1598 4.0520 0 
797 1 0.49 70.00 5.5478 9.5164 0 
798 1 0.51 70.00 25.0788 12.3219 0 
799 1 0.48 70.00 12.4087 2.2029 0 
800 1 0.42 70.00 2.4228 6.4028 0 
801 1 0.46 70.00 4.4906 12.1444 0 
802 1 0.40 70.00 23.9639 4.4355 0 
803 1 0.53 70.00 13.4677 14.3587 0 
804 1 0.47 70.00 22.9612 5.9740 0 
805 1 0.50 70.00 18.9529 1.5463 0 
806 1 0.40 70.00 19.5827 3.6793 0 
807 1 0.44 70.00 3.9878 5.2946 0 
808 1 0.39 70.00 13.7961 2.0421 0 
809 1 0.46 70.00 4.2552 5.0139 0 
810 1 0.48 70.00 16.8438 12.9003 0 
811 1 0.47 70.00 13.8086 9.3110 0 
812 1 0.45 70.00 3.5715 10.0376 0 
813 1 0.50 70.00 5.6070 6.0465 0 
814 1 0.49 70.00 7.2261 1.2301 0 
815 1 0.47 70.00 21.2348 8.6524 0 
816 1 0.48 70.00 18.7502 6.5386 0 
817 1 0.51 70.00 8.5612 8.1859 0 
818 1 0.50 70.00 15.8506 4.3724 0 
819 1 0.45 70.00 14.8455 5.5514 0 
820 1 0.43 70.00 11.0236 13.5127 0 
821 1 0.48 70.00 6.1148 8.3624 0 
822 1 0.46 70.00 14.1842 10.2856 0 
823 1 0.41 70.00 20.8352 8.1003 0 
824 1 0.46 70.00 11.6122 4.0047 0 
825 1 0.52 70.00 7.8053 4.8323 0 
826 1 0.47 70.00 14.4683 4.9024 0 
827 1 0.47 70.00 19.1577 2.3620 0 
828 1 0.44 70.00 12.0724 11.0721 0 
829 1 0.46 70.00 22.0987 12.8213 0 
830 1 0.51 70.00 7.2278 11.5560 0 
831 1 0.42 70.00 27.4648 9.1692 0 
832 1 0.47 70.00 8.6197 1.0139 0 
833 1 0.46 70.00 19.4033 5.5060 0 
834 1 0.45 70.00 26.0536 8.4583 0 
835 1 0.43 70.00 16.1198 9.8094 0 
836 1 0.51 70.00 6.9833 2.2046 0 
837 1 0.45 70.00 9.8242 2.4862 0 
838 1 0.51 70.00 25.4172 13.0066 0 
839 1 0.44 70.00 22.9389 3.6314 0 
840 1 0.47 70.00 10.4265 5.0972 0 
841 1 0.46 70.00 13.2164 10.2737 0 
842 1 0.43 70.00 25.0578 3.9310 0 
843 1 0.41 70.00 1.1220 6.5833 0 
844 1 0.49 70.00 25.5798 13.8522 0 
845 1 0.50 70.00 2.2850 14.5641 0 
846 1 0.49 70.00 14.5615 11.4324 0 
847 1 0.46 70.00 26.2259 10.6387 0 
848 1 0.50 70.00 5.6753 9.0023 0 
849 1 0.49 70.00 18.5805 12.7606 0 
850 1 0.49 70.00 1.9333 1.1608 0 
851 1 0.48 70.00 17.8283 14.7696 0 
852 1 0.49 70.00 14.3259 14.4947 0 
853 1 0.43 70.00 4.2952 1.0501 0 
854 1 0.43 70.00 6.5959 14.4603 0 
855 1 0.46 70.00 4.1761 7.1173 0 
856 1 0.42 70.00 22.7098 0.6696 0 
857 1 0.49 70.00 8.5130 7.3244 0 