# LAMMPS data file for rigid bodies

420 atoms

2 atom types

0.0 	 28.0 	 xlo xhi 
0.0 	 15.0 	 ylo yhi 
-1.0 	 1.0 	 zlo zhi 

Atoms

1 1 0.43 70.00 23.6724 11.8168 0 
2 1 0.48 70.00 7.8383 13.2119 0 
3 1 0.50 70.00 19.2397 13.5491 0 
4 1 0.49 70.00 14.5443 3.2927 0 
5 1 0.47 70.00 12.7643 9.2066 0 
6 1 0.52 70.00 20.5567 1.9086 0 
7 1 0.42 70.00 18.7665 11.9664 0 
8 1 0.44 70.00 12.5353 1.2435 0 
9 1 0.45 70.00 24.3504 14.1469 0 
10 1 0.43 70.00 27.7301 5.1729 0 
11 1 0.46 70.00 15.6488 10.7864 0 
12 1 0.49 70.00 6.5487 1.0699 0 
13 1 0.49 70.00 20.3880 2.9715 0 
14 1 0.46 70.00 26.7040 8.1738 0 
15 1 0.43 70.00 9.3805 2.9206 0 
16 1 0.50 70.00 19.0581 7.8399 0 
17 1 0.50 70.00 1.2969 5.7595 0 
18 1 0.48 70.00 7.9033 3.5962 0 
19 1 0.45 70.00 26.5740 5.4760 0 
20 1 0.49 70.00 26.7682 9.5193 0 
21 1 0.47 70.00 15.7755 9.8209 0 
22 1 0.51 70.00 25.4850 2.2735 0 
23 1 0.46 70.00 22.0049 6.3015 0 
24 1 0.48 70.00 4.7101 5.0422 0 
25 1 0.42 70.00 22.3348 10.8519 0 
26 1 0.44 70.00 27.2487 6.4394 0 
27 1 0.52 70.00 16.7321 7.0596 0 
28 1 0.44 70.00 3.8190 11.7828 0 
29 1 0.46 70.00 7.4016 8.6859 0 
30 1 0.50 70.00 19.5451 14.4264 0 
31 1 0.43 70.00 9.4175 4.6774 0 
32 1 0.50 70.00 13.8780 14.2516 0 
33 1 0.44 70.00 11.1261 8.9547 0 
34 1 0.50 70.00 22.7680 12.0502 0 
35 1 0.43 70.00 2.8560 7.5646 0 
36 1 0.48 70.00 9.9213 9.2319 0 
37 1 0.43 70.00 26.9971 7.3884 0 
38 1 0.43 70.00 22.8260 14.2778 0 
39 1 0.44 70.00 6.0347 0.8506 0 
40 1 0.47 70.00 1.6200 12.5250 0 
41 1 0.44 70.00 27.2753 6.7635 0 
42 1 0.49 70.00 15.9867 8.4751 0 
43 1 0.50 70.00 11.0272 3.7154 0 
44 1 0.49 70.00 3.2578 13.3581 0 
45 1 0.46 70.00 10.7303 8.3651 0 
46 1 0.52 70.00 6.6896 6.1424 0 
47 1 0.52 70.00 6.2118 3.3853 0 
48 1 0.41 70.00 12.4688 13.7141 0 
49 1 0.46 70.00 22.3808 11.3672 0 
50 1 0.50 70.00 8.8514 4.7281 0 
51 1 0.48 70.00 19.0945 4.8280 0 
52 1 0.55 70.00 1.1136 1.2158 0 
53 1 0.49 70.00 13.7562 13.5875 0 
54 1 0.50 70.00 21.1113 1.5265 0 
55 1 0.46 70.00 12.9009 1.6167 0 
56 1 0.48 70.00 24.9326 5.1329 0 
57 1 0.47 70.00 19.4426 7.2776 0 
58 1 0.47 70.00 8.2077 11.3096 0 
59 1 0.46 70.00 15.2324 13.2610 0 
60 1 0.46 70.00 21.5164 1.2568 0 
61 1 0.52 70.00 23.6559 7.3043 0 
62 1 0.49 70.00 19.8600 4.9749 0 
63 1 0.42 70.00 16.7323 10.8052 0 
64 1 0.51 70.00 4.9327 14.5626 0 
65 1 0.49 70.00 4.2548 7.6700 0 
66 1 0.51 70.00 25.8167 11.8451 0 
67 1 0.46 70.00 14.6792 6.5395 0 
68 1 0.43 70.00 16.5289 12.2398 0 
69 1 0.48 70.00 25.2374 5.4265 0 
70 1 0.50 70.00 23.5649 13.9858 0 
71 1 0.41 70.00 7.9594 6.7066 0 
72 1 0.51 70.00 15.5518 10.2868 0 
73 1 0.48 70.00 15.2561 2.5521 0 
74 1 0.43 70.00 18.8453 10.0922 0 
75 1 0.52 70.00 12.8352 4.8220 0 
76 1 0.51 70.00 4.3538 9.1240 0 
77 1 0.49 70.00 17.2735 14.4219 0 
78 1 0.48 70.00 16.3808 8.0798 0 
79 1 0.47 70.00 27.4477 10.8635 0 
80 1 0.47 70.00 6.6913 6.3778 0 
81 1 0.48 70.00 16.1355 3.2096 0 
82 1 0.47 70.00 21.4769 5.8539 0 
83 1 0.48 70.00 25.3596 12.3904 0 
84 1 0.46 70.00 12.7789 13.9726 0 
85 1 0.45 70.00 20.9765 11.4182 0 
86 1 0.45 70.00 10.3442 11.6648 0 
87 1 0.47 70.00 0.7117 10.7198 0 
88 1 0.43 70.00 2.6689 9.1437 0 
89 1 0.52 70.00 16.1220 6.3502 0 
90 1 0.49 70.00 1.1055 2.9063 0 
91 1 0.49 70.00 3.4216 3.0734 0 
92 1 0.49 70.00 24.1841 9.5529 0 
93 1 0.46 70.00 7.9728 7.4074 0 
94 1 0.49 70.00 1.4388 1.8187 0 
95 1 0.47 70.00 25.1773 13.8424 0 
96 1 0.50 70.00 13.2636 3.5509 0 
97 1 0.49 70.00 13.5367 11.5568 0 
98 1 0.52 70.00 7.2101 13.9839 0 
99 1 0.46 70.00 9.8974 6.9431 0 
100 1 0.49 70.00 15.7907 14.5636 0 
101 1 0.44 70.00 23.1297 5.3149 0 
102 1 0.49 70.00 24.6522 5.4705 0 
103 1 0.51 70.00 24.9431 4.5480 0 
104 1 0.45 70.00 11.8319 2.1237 0 
105 1 0.42 70.00 24.9951 4.8611 0 
106 1 0.46 70.00 2.8216 5.2388 0 
107 1 0.50 70.00 5.3685 8.7386 0 
108 1 0.46 70.00 25.7646 4.4431 0 
109 1 0.52 70.00 3.3031 7.7783 0 
110 1 0.51 70.00 11.0807 13.9159 0 
111 1 0.40 70.00 20.9993 12.3096 0 
112 1 0.45 70.00 23.4012 6.4482 0 
113 1 0.48 70.00 9.6527 6.5469 0 
114 1 0.51 70.00 19.3494 2.1980 0 
115 1 0.46 70.00 19.5666 2.8781 0 
116 1 0.51 70.00 23.5509 13.7418 0 
117 1 0.47 70.00 7.0631 9.8287 0 
118 1 0.43 70.00 2.9690 4.4882 0 
119 1 0.42 70.00 17.0891 8.5116 0 
120 1 0.50 70.00 20.3797 6.3821 0 
121 1 0.48 70.00 16.3212 0.7417 0 
122 1 0.54 70.00 7.0328 6.4587 0 
123 1 0.55 70.00 27.6625 1.6351 0 
124 1 0.42 70.00 3.0457 12.0598 0 
125 1 0.47 70.00 10.0660 12.3386 0 
126 1 0.45 70.00 2.9288 3.2439 0 
127 1 0.52 70.00 26.6352 1.4516 0 
128 1 0.49 70.00 17.4408 2.2409 0 
129 1 0.47 70.00 20.4991 7.3784 0 
130 1 0.49 70.00 14.9548 10.7536 0 
131 1 0.49 70.00 2.5736 4.7688 0 
132 1 0.46 70.00 1.8406 1.9376 0 
133 1 0.48 70.00 10.6363 2.4070 0 
134 1 0.47 70.00 10.1612 11.2154 0 
135 1 0.51 70.00 16.6920 13.2695 0 
136 1 0.46 70.00 10.1256 2.0974 0 
137 1 0.47 70.00 15.2179 6.4826 0 
138 1 0.50 70.00 18.6040 5.3888 0 
139 1 0.42 70.00 6.2286 14.2460 0 
140 1 0.46 70.00 16.3134 9.0488 0 
141 1 0.49 70.00 26.1313 7.7398 0 
142 1 0.49 70.00 17.5214 6.6758 0 
143 1 0.46 70.00 5.9663 11.4208 0 
144 1 0.51 70.00 0.9173 12.8918 0 
145 1 0.49 70.00 2.3094 7.1374 0 
146 1 0.42 70.00 12.8369 5.2941 0 
147 1 0.45 70.00 25.1032 2.1716 0 
148 1 0.52 70.00 11.8649 7.3106 0 
149 1 0.48 70.00 22.8109 7.7536 0 
150 1 0.44 70.00 18.3199 1.9067 0 
151 1 0.50 70.00 13.2841 6.6264 0 
152 1 0.49 70.00 10.2054 13.3794 0 
153 1 0.46 70.00 18.1834 8.2484 0 
154 1 0.49 70.00 8.3834 9.9831 0 
155 1 0.52 70.00 10.9168 14.6197 0 
156 1 0.50 70.00 17.1785 9.4767 0 
157 1 0.46 70.00 3.5803 11.0892 0 
158 1 0.48 70.00 9.0666 1.6125 0 
159 1 0.57 70.00 9.6345 10.6374 0 
160 1 0.47 70.00 5.0230 4.5612 0 
161 1 0.49 70.00 13.9684 11.8775 0 
162 1 0.49 70.00 13.6759 12.1349 0 
163 1 0.48 70.00 23.3015 5.8783 0 
164 1 0.47 70.00 12.1790 8.2138 0 
165 1 0.40 70.00 8.8564 12.5429 0 
166 1 0.45 70.00 19.0912 1.9418 0 
167 1 0.44 70.00 14.5557 14.0133 0 
168 1 0.47 70.00 3.4914 9.2447 0 
169 1 0.46 70.00 11.9283 9.9355 0 
170 1 0.43 70.00 24.7493 13.0240 0 
171 1 0.51 70.00 24.6262 2.1835 0 
172 1 0.43 70.00 25.4340 10.0554 0 
173 1 0.50 70.00 7.7692 14.6797 0 
174 1 0.48 70.00 21.5576 8.4740 0 
175 1 0.46 70.00 21.6094 5.6008 0 
176 1 0.47 70.00 14.2979 6.8096 0 
177 1 0.51 70.00 15.9050 12.0251 0 
178 1 0.47 70.00 17.2748 5.1626 0 
179 1 0.44 70.00 6.1834 4.9054 0 
180 1 0.48 70.00 3.0747 0.6486 0 
181 1 0.41 70.00 19.3930 5.0876 0 
182 1 0.51 70.00 24.5783 13.3718 0 
183 1 0.52 70.00 7.0132 4.4249 0 
184 1 0.56 70.00 13.8181 2.1159 0 
185 1 0.45 70.00 21.4569 12.1020 0 
186 1 0.49 70.00 19.5897 3.4769 0 
187 1 0.47 70.00 24.8086 11.3034 0 
188 1 0.48 70.00 24.6348 13.9664 0 
189 1 0.51 70.00 7.3559 5.1967 0 
190 1 0.41 70.00 22.9525 12.8207 0 
191 1 0.44 70.00 15.8062 8.9784 0 
192 1 0.47 70.00 7.9605 0.9526 0 
193 1 0.50 70.00 16.4167 6.9511 0 
194 1 0.50 70.00 9.2949 1.9115 0 
195 1 0.47 70.00 3.6629 4.3766 0 
196 1 0.48 70.00 9.6573 14.7745 0 
197 1 0.42 70.00 21.0099 4.6755 0 
198 1 0.43 70.00 21.1391 2.2907 0 
199 1 0.46 70.00 27.7990 14.5970 0 
200 1 0.46 70.00 23.1612 8.1996 0 
201 1 0.43 70.00 24.1003 3.9250 0 
202 1 0.45 70.00 11.4384 14.6864 0 
203 1 0.47 70.00 21.0112 8.3719 0 
204 1 0.44 70.00 4.4319 3.3003 0 
205 1 0.47 70.00 14.3153 12.6272 0 
206 1 0.47 70.00 7.5363 14.2297 0 
207 1 0.46 70.00 27.6207 9.3124 0 
208 1 0.48 70.00 16.4851 0.9039 0 
209 1 0.50 70.00 8.7267 13.8450 0 
210 1 0.45 70.00 1.7058 12.1238 0 
211 1 0.43 70.00 24.9209 13.6645 0 
212 1 0.42 70.00 1.9526 3.2024 0 
213 1 0.45 70.00 7.2709 1.0410 0 
214 1 0.44 70.00 17.8724 13.2480 0 
215 1 0.54 70.00 13.9015 2.9720 0 
216 1 0.46 70.00 0.9824 7.3336 0 
217 1 0.47 70.00 25.0769 10.5378 0 
218 1 0.50 70.00 19.7447 13.6452 0 
219 1 0.45 70.00 16.4468 12.7917 0 
220 1 0.48 70.00 26.3076 2.7995 0 
221 1 0.44 70.00 26.7203 10.7174 0 
222 1 0.47 70.00 3.8350 0.5816 0 
223 1 0.49 70.00 15.2584 9.8750 0 
224 1 0.42 70.00 13.1417 10.8834 0 
225 1 0.47 70.00 10.0330 9.4451 0 
226 1 0.52 70.00 20.3299 14.5187 0 
227 1 0.46 70.00 6.3621 3.1070 0 
228 1 0.56 70.00 22.6786 10.3806 0 
229 1 0.44 70.00 21.1420 10.3310 0 
230 1 0.44 70.00 23.0956 1.9032 0 
231 1 0.50 70.00 25.1392 13.0848 0 
232 1 0.52 70.00 26.4969 9.4889 0 
233 1 0.42 70.00 19.9443 9.7234 0 
234 1 0.51 70.00 15.7061 13.8371 0 
235 1 0.49 70.00 27.7604 8.3306 0 
236 1 0.43 70.00 16.8557 3.2714 0 
237 1 0.53 70.00 15.5199 10.5766 0 
238 1 0.49 70.00 10.8850 2.1516 0 
239 1 0.46 70.00 11.2495 10.7166 0 
240 1 0.50 70.00 9.2786 9.4425 0 
241 1 0.52 70.00 24.6547 0.7440 0 
242 1 0.46 70.00 1.2550 11.8101 0 
243 1 0.47 70.00 24.9721 1.9284 0 
244 1 0.48 70.00 19.5432 8.5219 0 
245 1 0.45 70.00 2.5802 12.9565 0 
246 1 0.48 70.00 1.1666 13.1908 0 
247 1 0.42 70.00 21.9411 2.6381 0 
248 1 0.53 70.00 18.2197 3.1330 0 
249 1 0.44 70.00 3.8582 6.6499 0 
250 1 0.45 70.00 6.8433 1.5460 0 
251 1 0.47 70.00 23.9077 2.1027 0 
252 1 0.48 70.00 23.1768 14.6722 0 
253 1 0.52 70.00 2.9066 8.8197 0 
254 1 0.53 70.00 14.5759 1.1488 0 
255 1 0.50 70.00 6.7205 9.9850 0 
256 1 0.47 70.00 15.5861 8.5857 0 
257 1 0.43 70.00 20.0393 5.6474 0 
258 1 0.48 70.00 1.5229 7.9696 0 
259 1 0.52 70.00 13.5280 6.1074 0 
260 1 0.50 70.00 15.0949 14.4999 0 
261 1 0.47 70.00 24.4921 14.5215 0 
262 1 0.47 70.00 18.4520 3.8949 0 
263 1 0.55 70.00 16.3884 9.2353 0 
264 1 0.48 70.00 22.8995 6.3528 0 
265 1 0.48 70.00 18.6996 9.5514 0 
266 1 0.50 70.00 13.2018 13.4874 0 
267 1 0.50 70.00 17.8584 8.2241 0 
268 1 0.53 70.00 18.9483 9.8631 0 
269 1 0.42 70.00 5.1841 3.0795 0 
270 1 0.38 70.00 8.0465 2.4827 0 
271 1 0.51 70.00 7.0364 11.2661 0 
272 1 0.49 70.00 12.3263 6.2233 0 
273 1 0.46 70.00 8.1657 9.5647 0 
274 1 0.44 70.00 21.5594 4.8739 0 
275 1 0.49 70.00 16.4789 13.7014 0 
276 1 0.40 70.00 6.7008 9.1700 0 
277 1 0.53 70.00 9.4835 2.5526 0 
278 1 0.42 70.00 2.6259 5.7651 0 
279 1 0.49 70.00 10.7523 9.0130 0 
280 1 0.45 70.00 19.7413 5.9172 0 
281 1 0.45 70.00 6.1693 1.0372 0 
282 1 0.47 70.00 20.7013 7.1590 0 
283 1 0.47 70.00 11.4149 9.9516 0 
284 1 0.49 70.00 4.0494 5.7996 0 
285 1 0.45 70.00 13.6373 5.2809 0 
286 1 0.50 70.00 9.6474 14.1585 0 
287 1 0.45 70.00 10.5386 13.3528 0 
288 1 0.52 70.00 20.9778 2.4806 0 
289 1 0.47 70.00 19.9875 1.7246 0 
290 1 0.49 70.00 18.6092 13.8674 0 
291 1 0.52 70.00 18.9025 14.6239 0 
292 1 0.48 70.00 10.4812 7.8639 0 
293 1 0.44 70.00 22.0108 5.0349 0 
294 1 0.46 70.00 17.4350 12.4575 0 
295 1 0.46 70.00 20.3335 12.1641 0 
296 1 0.55 70.00 1.2027 6.3757 0 
297 1 0.47 70.00 23.1821 4.6555 0 
298 1 0.46 70.00 15.7772 12.5795 0 
299 1 0.50 70.00 7.0831 2.8747 0 
300 1 0.50 70.00 2.3591 13.5160 0 
301 1 0.45 70.00 0.5767 9.5770 0 
302 1 0.45 70.00 21.6744 7.9082 0 
303 1 0.42 70.00 21.5906 0.7584 0 
304 1 0.45 70.00 24.6194 1.3211 0 
305 1 0.47 70.00 18.6034 14.7273 0 
306 1 0.47 70.00 14.0624 0.6395 0 
307 1 0.47 70.00 8.3593 5.7695 0 
308 1 0.52 70.00 21.2217 5.5848 0 
309 1 0.48 70.00 15.4563 5.3088 0 
310 1 0.42 70.00 0.7758 7.9784 0 
311 1 0.47 70.00 20.9754 13.1207 0 
312 1 0.45 70.00 17.5816 2.4152 0 
313 1 0.42 70.00 1.0865 13.8903 0 
314 1 0.46 70.00 8.4483 2.1751 0 
315 1 0.46 70.00 24.5617 2.9082 0 
316 1 0.44 70.00 8.1728 6.0872 0 
317 1 0.49 70.00 15.6678 8.0776 0 
318 1 0.47 70.00 13.3018 4.4952 0 
319 1 0.42 70.00 15.7990 2.8038 0 
320 1 0.49 70.00 14.4568 9.1247 0 
321 1 0.48 70.00 14.2219 1.0930 0 
322 1 0.47 70.00 10.3616 8.9618 0 
323 1 0.42 70.00 7.6181 11.9739 0 
324 1 0.48 70.00 23.7253 1.8970 0 
325 1 0.46 70.00 6.5188 10.9886 0 
326 1 0.42 70.00 18.0702 0.9349 0 
327 1 0.47 70.00 13.4211 1.7202 0 
328 1 0.50 70.00 25.7711 0.6986 0 
329 1 0.47 70.00 19.6469 2.5110 0 
330 1 0.46 70.00 20.4756 3.8294 0 
331 1 0.48 70.00 6.3352 2.3608 0 
332 1 0.49 70.00 8.2487 3.4793 0 
333 1 0.46 70.00 13.5015 2.5691 0 
334 1 0.47 70.00 5.7014 14.5681 0 
335 1 0.44 70.00 17.7725 14.3399 0 
336 1 0.48 70.00 15.1224 13.5124 0 
337 1 0.45 70.00 22.4407 8.2231 0 
338 1 0.52 70.00 17.7599 3.6892 0 
339 1 0.46 70.00 18.8394 13.5752 0 
340 1 0.43 70.00 12.2812 5.5475 0 
341 1 0.46 70.00 16.2194 11.1976 0 
342 1 0.49 70.00 12.3671 0.5813 0 
343 1 0.51 70.00 16.8922 14.2244 0 
344 1 0.46 70.00 21.2887 1.0802 0 
345 1 0.47 70.00 16.8876 11.8186 0 
346 1 0.46 70.00 2.4632 2.3922 0 
347 1 0.42 70.00 19.2850 6.9605 0 
348 1 0.52 70.00 5.0590 7.3774 0 
349 1 0.48 70.00 8.1830 14.1029 0 
350 1 0.46 70.00 19.2863 10.5075 0 
351 1 0.45 70.00 10.6033 0.6381 0 
352 1 0.49 70.00 8.3869 4.8103 0 
353 1 0.45 70.00 14.1915 10.4746 0 
354 1 0.46 70.00 20.7686 11.5951 0 
355 1 0.48 70.00 6.5612 6.8418 0 
356 1 0.48 70.00 11.4373 1.5987 0 
357 1 0.41 70.00 23.2832 4.3199 0 
358 1 0.40 70.00 13.6838 13.9085 0 
359 1 0.41 70.00 21.3143 4.5681 0 
360 1 0.46 70.00 20.1186 6.0396 0 
361 1 0.47 70.00 6.9033 13.4682 0 
362 1 0.47 70.00 22.7059 13.5505 0 
363 1 0.46 70.00 23.3011 5.0091 0 
364 1 0.50 70.00 26.3157 1.0207 0 
365 1 0.44 70.00 10.6196 12.2676 0 
366 1 0.51 70.00 12.0029 11.2366 0 
367 1 0.45 70.00 26.7790 11.5300 0 
368 1 0.52 70.00 16.9051 5.1328 0 
369 1 0.46 70.00 22.3664 6.8577 0 
370 1 0.46 70.00 23.1327 3.2084 0 
371 1 0.42 70.00 2.3252 12.8723 0 
372 1 0.52 70.00 9.3088 11.2366 0 
373 1 0.48 70.00 18.9583 8.7913 0 
374 1 0.47 70.00 17.7526 4.9048 0 
375 1 0.47 70.00 7.9429 10.0734 0 
376 1 0.46 70.00 12.6267 3.0464 0 
377 1 0.51 70.00 20.5150 14.0243 0 
378 1 0.50 70.00 4.3514 7.9971 0 
379 1 0.48 70.00 22.6699 9.7612 0 
380 1 0.46 70.00 5.1808 1.8259 0 
381 1 0.48 70.00 13.5209 0.9153 0 
382 1 0.48 70.00 20.0960 14.7850 0 
383 1 0.49 70.00 16.1276 7.4816 0 
384 1 0.46 70.00 8.0759 10.2519 0 
385 1 0.48 70.00 24.6931 1.0754 0 
386 1 0.48 70.00 3.7388 9.6048 0 
387 1 0.47 70.00 16.7170 4.7405 0 
388 1 0.50 70.00 21.0113 12.0292 0 
389 1 0.46 70.00 14.9029 8.7027 0 
390 1 0.49 70.00 11.6015 0.6902 0 
391 1 0.46 70.00 12.5022 6.3647 0 
392 1 0.47 70.00 18.3382 7.7038 0 
393 1 0.48 70.00 1.8484 10.2749 0 
394 1 0.47 70.00 9.2320 2.4929 0 
395 1 0.45 70.00 25.9508 10.6143 0 
396 1 0.46 70.00 22.3830 12.8345 0 
397 1 0.48 70.00 14.2129 1.8467 0 
398 1 0.46 70.00 12.1060 0.7360 0 
399 1 0.45 70.00 21.9202 12.1469 0 
400 1 0.46 70.00 12.0487 4.8231 0 
401 1 0.51 70.00 15.1163 3.9044 0 
402 1 0.48 70.00 18.2948 8.8892 0 
403 1 0.51 70.00 7.1474 8.1671 0 
404 1 0.39 70.00 15.1858 11.2520 0 
405 1 0.45 70.00 18.5491 8.7241 0 
406 1 0.45 70.00 19.0470 5.6179 0 
407 1 0.49 70.00 26.4608 3.0042 0 
408 1 0.43 70.00 2.3248 8.0894 0 
409 1 0.48 70.00 11.4134 12.4636 0 
410 1 0.49 70.00 5.6642 1.2452 0 
411 1 0.47 70.00 14.2181 5.6384 0 
412 1 0.50 70.00 5.9745 14.0856 0 
413 1 0.50 70.00 19.1202 14.6846 0 
414 1 0.48 70.00 19.3159 4.7068 0 
415 1 0.45 70.00 24.6550 2.4041 0 
416 1 0.47 70.00 11.8946 0.8220 0 
417 1 0.45 70.00 18.0312 10.4546 0 
418 1 0.50 70.00 16.2824 8.5007 0 
419 1 0.46 70.00 13.8273 3.6702 0 
420 1 0.51 70.00 12.9506 1.3277 0 
