# LAMMPS data file for rigid bodies

2100 atoms

2 atom types

0.0 	 28.0 	 xlo xhi 
0.0 	 15.0 	 ylo yhi 
-1.0 	 1.0 	 zlo zhi 

Atoms

1 1 0.44 70.00 15.8664 7.6157 0 
2 1 0.48 70.00 11.8679 3.8889 0 
3 1 0.45 70.00 3.5098 13.6492 0 
4 1 0.48 70.00 7.4888 3.7418 0 
5 1 0.49 70.00 13.6053 2.7541 0 
6 1 0.41 70.00 23.3844 8.9044 0 
7 1 0.47 70.00 18.0684 5.0006 0 
8 1 0.48 70.00 8.4945 7.1363 0 
9 1 0.43 70.00 10.9925 1.9295 0 
10 1 0.44 70.00 20.8810 4.6563 0 
11 1 0.46 70.00 24.6953 7.7184 0 
12 1 0.42 70.00 3.5767 5.8287 0 
13 1 0.48 70.00 13.1674 1.1825 0 
14 1 0.47 70.00 19.2544 1.3425 0 
15 1 0.46 70.00 19.5162 3.8433 0 
16 1 0.48 70.00 24.6356 10.1462 0 
17 1 0.44 70.00 12.7380 2.3748 0 
18 1 0.47 70.00 22.2013 5.4912 0 
19 1 0.50 70.00 8.8003 4.1590 0 
20 1 0.48 70.00 9.5096 4.4180 0 
21 1 0.46 70.00 1.6293 13.9836 0 
22 1 0.44 70.00 24.4215 11.7124 0 
23 1 0.42 70.00 11.9482 10.8314 0 
24 1 0.43 70.00 15.3054 12.9788 0 
25 1 0.47 70.00 9.9777 8.7619 0 
26 1 0.44 70.00 14.9649 9.1496 0 
27 1 0.52 70.00 10.8440 9.9062 0 
28 1 0.49 70.00 7.1972 6.3455 0 
29 1 0.47 70.00 16.8563 1.6142 0 
30 1 0.49 70.00 24.2311 2.7898 0 
31 1 0.49 70.00 20.2873 5.1729 0 
32 1 0.46 70.00 23.7527 6.0301 0 
33 1 0.51 70.00 9.0376 4.9247 0 
34 1 0.50 70.00 24.4993 13.7823 0 
35 1 0.49 70.00 14.4747 5.5140 0 
36 1 0.54 70.00 18.0131 13.7377 0 
37 1 0.41 70.00 21.3686 4.2699 0 
38 1 0.46 70.00 2.3489 5.7586 0 
39 1 0.48 70.00 16.7214 6.0015 0 
40 1 0.52 70.00 14.7131 13.5434 0 
41 1 0.45 70.00 4.2029 5.2984 0 
42 1 0.47 70.00 25.8536 2.6997 0 
43 1 0.39 70.00 2.6772 12.4177 0 
44 1 0.45 70.00 10.9026 11.6649 0 
45 1 0.48 70.00 7.8265 9.2764 0 
46 1 0.46 70.00 24.8302 9.2306 0 
47 1 0.51 70.00 19.3330 12.9844 0 
48 1 0.45 70.00 24.8528 5.2315 0 
49 1 0.46 70.00 17.0606 10.6780 0 
50 1 0.44 70.00 17.1229 12.3498 0 
51 1 0.49 70.00 27.5794 11.4815 0 
52 1 0.49 70.00 24.3418 8.0260 0 
53 1 0.47 70.00 11.0888 4.5426 0 
54 1 0.47 70.00 23.8583 2.7761 0 
55 1 0.47 70.00 12.4458 13.1898 0 
56 1 0.45 70.00 18.7659 5.1306 0 
57 1 0.43 70.00 23.2230 13.6304 0 
58 1 0.45 70.00 4.1520 3.4684 0 
59 1 0.53 70.00 11.5070 2.7805 0 
60 1 0.50 70.00 1.6075 14.2408 0 
61 1 0.43 70.00 19.0333 7.4311 0 
62 1 0.47 70.00 4.0424 9.4252 0 
63 1 0.50 70.00 6.7407 13.0011 0 
64 1 0.51 70.00 1.7555 11.0037 0 
65 1 0.42 70.00 27.0825 2.5102 0 
66 1 0.42 70.00 14.6575 0.6405 0 
67 1 0.49 70.00 20.3246 0.9928 0 
68 1 0.50 70.00 27.1720 13.2876 0 
69 1 0.45 70.00 5.0316 3.6222 0 
70 1 0.49 70.00 15.0283 1.0530 0 
71 1 0.52 70.00 21.4434 10.8911 0 
72 1 0.49 70.00 13.0455 12.6819 0 
73 1 0.47 70.00 16.0982 4.4680 0 
74 1 0.46 70.00 20.7006 11.4066 0 
75 1 0.51 70.00 20.6428 2.2573 0 
76 1 0.48 70.00 15.4669 4.4246 0 
77 1 0.45 70.00 19.9345 6.6222 0 
78 1 0.52 70.00 24.8259 13.7198 0 
79 1 0.47 70.00 12.8600 11.3447 0 
80 1 0.49 70.00 2.6939 12.6887 0 
81 1 0.47 70.00 22.9389 12.1068 0 
82 1 0.47 70.00 4.2847 1.8337 0 
83 1 0.47 70.00 27.4415 1.3083 0 
84 1 0.48 70.00 6.5578 14.2029 0 
85 1 0.44 70.00 11.2325 1.1355 0 
86 1 0.45 70.00 16.2761 2.5148 0 
87 1 0.48 70.00 25.1830 10.4803 0 
88 1 0.48 70.00 13.7864 12.7780 0 
89 1 0.39 70.00 6.2017 0.6405 0 
90 1 0.46 70.00 23.2360 4.8025 0 
91 1 0.46 70.00 17.5465 5.1112 0 
92 1 0.55 70.00 22.1106 2.6623 0 
93 1 0.50 70.00 12.0462 1.8805 0 
94 1 0.45 70.00 26.4813 4.2131 0 
95 1 0.48 70.00 21.8973 8.9950 0 
96 1 0.40 70.00 27.2536 5.2083 0 
97 1 0.48 70.00 15.5057 8.4727 0 
98 1 0.44 70.00 21.2362 12.3722 0 
99 1 0.44 70.00 6.4519 1.5601 0 
100 1 0.49 70.00 19.2268 5.0475 0 
101 1 0.48 70.00 5.1831 13.3818 0 
102 1 0.48 70.00 22.1429 1.4949 0 
103 1 0.51 70.00 3.7416 6.9313 0 
104 1 0.42 70.00 9.8707 4.6190 0 
105 1 0.48 70.00 11.3643 10.9829 0 
106 1 0.47 70.00 10.9888 9.7281 0 
107 1 0.44 70.00 24.8250 2.5693 0 
108 1 0.51 70.00 17.5229 2.0181 0 
109 1 0.47 70.00 24.5370 6.3983 0 
110 1 0.53 70.00 16.9815 3.2957 0 
111 1 0.48 70.00 12.3815 2.4524 0 
112 1 0.47 70.00 26.0785 5.2227 0 
113 1 0.42 70.00 11.9401 2.3897 0 
114 1 0.45 70.00 19.0881 11.5914 0 
115 1 0.49 70.00 8.9514 12.1239 0 
116 1 0.53 70.00 1.4840 10.7127 0 
117 1 0.45 70.00 15.5003 10.2996 0 
118 1 0.53 70.00 9.2626 12.4066 0 
119 1 0.50 70.00 15.8791 4.7248 0 
120 1 0.50 70.00 7.3673 11.7794 0 
121 1 0.54 70.00 15.0477 6.9314 0 
122 1 0.46 70.00 11.8927 14.6763 0 
123 1 0.49 70.00 11.8361 9.7130 0 
124 1 0.47 70.00 13.2545 11.2526 0 
125 1 0.47 70.00 15.0919 11.2713 0 
126 1 0.51 70.00 25.2238 8.0135 0 
127 1 0.49 70.00 24.7399 4.4900 0 
128 1 0.47 70.00 12.5362 6.7466 0 
129 1 0.48 70.00 20.8065 9.2038 0 
130 1 0.48 70.00 16.5602 12.6730 0 
131 1 0.43 70.00 24.2055 6.6079 0 
132 1 0.42 70.00 19.7275 7.0677 0 
133 1 0.47 70.00 5.9424 9.2059 0 
134 1 0.45 70.00 20.5715 0.6359 0 
135 1 0.50 70.00 23.0453 7.6533 0 
136 1 0.47 70.00 10.0456 11.3146 0 
137 1 0.50 70.00 22.9934 13.4615 0 
138 1 0.52 70.00 25.8010 9.0869 0 
139 1 0.47 70.00 11.4265 1.6095 0 
140 1 0.47 70.00 5.2402 6.4555 0 
141 1 0.56 70.00 0.7689 10.8643 0 
142 1 0.47 70.00 2.0274 1.3443 0 
143 1 0.48 70.00 1.6156 4.0527 0 
144 1 0.46 70.00 26.6906 7.7662 0 
145 1 0.40 70.00 3.4069 7.1515 0 
146 1 0.45 70.00 18.6135 13.3815 0 
147 1 0.46 70.00 2.0022 11.2810 0 
148 1 0.45 70.00 22.9527 1.4477 0 
149 1 0.47 70.00 20.1528 8.4072 0 
150 1 0.48 70.00 23.3703 1.2934 0 
151 1 0.50 70.00 24.4922 6.1843 0 
152 1 0.49 70.00 21.8503 8.5541 0 
153 1 0.44 70.00 1.8897 12.3069 0 
154 1 0.54 70.00 8.6480 1.9801 0 
155 1 0.49 70.00 20.0195 14.5511 0 
156 1 0.46 70.00 25.8057 8.8045 0 
157 1 0.51 70.00 27.5240 1.5473 0 
158 1 0.50 70.00 6.5400 1.2524 0 
159 1 0.47 70.00 19.0808 2.8273 0 
160 1 0.43 70.00 27.6863 9.4538 0 
161 1 0.47 70.00 23.4635 9.1130 0 
162 1 0.50 70.00 19.6861 12.9419 0 
163 1 0.50 70.00 11.3180 12.3217 0 
164 1 0.50 70.00 22.4664 3.8878 0 
165 1 0.45 70.00 1.6679 2.2533 0 
166 1 0.49 70.00 22.8746 9.1979 0 
167 1 0.45 70.00 12.5410 4.7556 0 
168 1 0.48 70.00 26.8622 11.1622 0 
169 1 0.43 70.00 3.7183 8.8885 0 
170 1 0.46 70.00 22.1067 4.2840 0 
171 1 0.47 70.00 1.7751 10.5986 0 
172 1 0.44 70.00 16.1792 2.9011 0 
173 1 0.54 70.00 6.5778 9.1518 0 
174 1 0.42 70.00 12.0950 5.5764 0 
175 1 0.43 70.00 14.6865 3.5904 0 
176 1 0.48 70.00 21.6326 2.6810 0 
177 1 0.47 70.00 11.2117 3.5858 0 
178 1 0.46 70.00 26.4629 2.2013 0 
179 1 0.47 70.00 5.1052 10.9705 0 
180 1 0.51 70.00 14.9564 4.6923 0 
181 1 0.50 70.00 21.7864 12.0598 0 
182 1 0.49 70.00 1.0400 13.4919 0 
183 1 0.47 70.00 14.4045 13.0933 0 
184 1 0.39 70.00 15.2188 11.0192 0 
185 1 0.56 70.00 26.2279 1.9114 0 
186 1 0.48 70.00 5.6908 5.6566 0 
187 1 0.49 70.00 5.8161 8.1164 0 
188 1 0.45 70.00 2.5610 4.5716 0 
189 1 0.45 70.00 18.4357 6.6040 0 
190 1 0.45 70.00 6.5527 8.3310 0 
191 1 0.49 70.00 25.0922 9.1580 0 
192 1 0.51 70.00 11.6945 7.1631 0 
193 1 0.54 70.00 17.2286 10.9084 0 
194 1 0.47 70.00 9.0960 11.7964 0 
195 1 0.48 70.00 17.9593 3.9488 0 
196 1 0.41 70.00 8.7191 12.6505 0 
197 1 0.45 70.00 22.8626 7.9558 0 
198 1 0.45 70.00 12.1651 13.3706 0 
199 1 0.47 70.00 24.8258 9.6091 0 
200 1 0.49 70.00 4.2122 9.9882 0 
201 1 0.46 70.00 21.6030 14.7312 0 
202 1 0.45 70.00 26.8221 8.3364 0 
203 1 0.47 70.00 4.9073 8.5274 0 
204 1 0.51 70.00 11.9117 2.8867 0 
205 1 0.44 70.00 15.3901 6.1102 0 
206 1 0.46 70.00 20.0249 12.6196 0 
207 1 0.41 70.00 18.8825 1.3523 0 
208 1 0.46 70.00 5.2484 9.2777 0 
209 1 0.46 70.00 15.6678 14.4795 0 
210 1 0.46 70.00 17.3853 7.1659 0 
211 1 0.42 70.00 25.6583 3.9361 0 
212 1 0.51 70.00 4.2033 4.7772 0 
213 1 0.46 70.00 15.3408 12.6740 0 
214 1 0.50 70.00 17.4940 2.4703 0 
215 1 0.47 70.00 7.1942 11.0684 0 
216 1 0.48 70.00 7.6745 1.0666 0 
217 1 0.46 70.00 19.5095 14.3786 0 
218 1 0.49 70.00 19.6844 2.6610 0 
219 1 0.50 70.00 14.6766 5.7896 0 
220 1 0.48 70.00 12.6931 1.9780 0 
221 1 0.48 70.00 4.6192 10.1803 0 
222 1 0.45 70.00 15.1868 11.7790 0 
223 1 0.50 70.00 2.7424 10.8921 0 
224 1 0.50 70.00 1.4793 12.6399 0 
225 1 0.45 70.00 14.7206 12.5879 0 
226 1 0.45 70.00 18.2710 6.0088 0 
227 1 0.47 70.00 13.1844 12.2361 0 
228 1 0.51 70.00 7.1467 14.1957 0 
229 1 0.44 70.00 17.2406 2.9136 0 
230 1 0.47 70.00 17.8408 11.5049 0 
231 1 0.44 70.00 19.5470 4.8964 0 
232 1 0.47 70.00 18.4710 10.8427 0 
233 1 0.45 70.00 24.6697 1.6866 0 
234 1 0.52 70.00 14.4425 14.6269 0 
235 1 0.50 70.00 25.7819 11.4804 0 
236 1 0.52 70.00 27.2831 11.6776 0 
237 1 0.44 70.00 10.4297 3.0665 0 
238 1 0.48 70.00 5.9311 6.3136 0 
239 1 0.46 70.00 9.8802 2.6029 0 
240 1 0.44 70.00 5.6644 4.7620 0 
241 1 0.46 70.00 13.9807 5.6389 0 
242 1 0.49 70.00 16.5992 3.1804 0 
243 1 0.45 70.00 5.1230 0.8182 0 
244 1 0.48 70.00 18.2122 3.9829 0 
245 1 0.45 70.00 2.7009 13.0733 0 
246 1 0.48 70.00 6.7695 12.6822 0 
247 1 0.48 70.00 20.4477 2.3505 0 
248 1 0.42 70.00 7.4798 7.8950 0 
249 1 0.49 70.00 12.6714 6.9443 0 
250 1 0.42 70.00 20.0372 5.2340 0 
251 1 0.40 70.00 16.8195 3.4853 0 
252 1 0.48 70.00 9.4308 7.0905 0 
253 1 0.46 70.00 25.2183 8.7821 0 
254 1 0.44 70.00 15.8655 1.3854 0 
255 1 0.47 70.00 8.0690 7.4087 0 
256 1 0.50 70.00 15.3412 5.2711 0 
257 1 0.44 70.00 21.9167 5.7371 0 
258 1 0.45 70.00 1.5178 1.5844 0 
259 1 0.44 70.00 23.5443 3.2034 0 
260 1 0.50 70.00 17.4963 7.9174 0 
261 1 0.44 70.00 15.6914 10.4234 0 
262 1 0.46 70.00 27.1887 12.3953 0 
263 1 0.49 70.00 22.9107 4.2063 0 
264 1 0.49 70.00 19.4468 2.9222 0 
265 1 0.43 70.00 6.7090 10.5400 0 
266 1 0.45 70.00 13.0608 6.6069 0 
267 1 0.46 70.00 5.8803 11.3108 0 
268 1 0.44 70.00 1.5258 11.1869 0 
269 1 0.48 70.00 6.0588 6.7448 0 
270 1 0.42 70.00 7.1954 13.9615 0 
271 1 0.52 70.00 2.4001 2.1519 0 
272 1 0.48 70.00 12.7191 14.1123 0 
273 1 0.45 70.00 10.5712 4.5052 0 
274 1 0.47 70.00 3.1331 14.2702 0 
275 1 0.47 70.00 18.2096 7.7054 0 
276 1 0.50 70.00 3.9482 3.2639 0 
277 1 0.45 70.00 26.5856 13.5742 0 
278 1 0.48 70.00 5.2514 1.5708 0 
279 1 0.50 70.00 21.0307 13.6849 0 
280 1 0.48 70.00 12.1140 8.7701 0 
281 1 0.47 70.00 12.5317 10.9133 0 
282 1 0.49 70.00 14.2187 1.8959 0 
283 1 0.48 70.00 15.8573 2.2196 0 
284 1 0.46 70.00 26.5989 12.5753 0 
285 1 0.54 70.00 13.7274 8.0696 0 
286 1 0.50 70.00 12.1019 9.2844 0 
287 1 0.44 70.00 22.6034 2.6350 0 
288 1 0.51 70.00 4.1709 7.8896 0 
289 1 0.43 70.00 3.3824 12.9572 0 
290 1 0.46 70.00 6.3190 5.2735 0 
291 1 0.47 70.00 1.3539 2.4356 0 
292 1 0.50 70.00 2.0659 9.4545 0 
293 1 0.44 70.00 20.1263 1.2239 0 
294 1 0.52 70.00 11.1082 7.6156 0 
295 1 0.50 70.00 18.3157 14.0316 0 
296 1 0.53 70.00 26.4960 2.6529 0 
297 1 0.50 70.00 9.8137 9.8963 0 
298 1 0.44 70.00 21.4736 12.7415 0 
299 1 0.45 70.00 21.5274 5.4362 0 
300 1 0.48 70.00 27.0887 1.8547 0 
301 1 0.47 70.00 6.1821 2.3237 0 
302 1 0.51 70.00 22.1501 7.8559 0 
303 1 0.50 70.00 18.8883 14.3696 0 
304 1 0.46 70.00 5.4645 4.4323 0 
305 1 0.50 70.00 16.8578 5.0745 0 
306 1 0.43 70.00 12.3122 2.1916 0 
307 1 0.50 70.00 16.0601 9.3988 0 
308 1 0.44 70.00 21.0466 5.9422 0 
309 1 0.40 70.00 3.2671 14.5204 0 
310 1 0.46 70.00 1.8660 12.0178 0 
311 1 0.46 70.00 12.1645 5.9693 0 
312 1 0.50 70.00 12.4631 10.3363 0 
313 1 0.51 70.00 2.0087 6.2677 0 
314 1 0.40 70.00 4.9693 10.7480 0 
315 1 0.51 70.00 21.3625 7.9717 0 
316 1 0.46 70.00 19.8881 3.9039 0 
317 1 0.52 70.00 1.9141 3.3999 0 
318 1 0.49 70.00 23.0045 9.7656 0 
319 1 0.47 70.00 7.8755 0.8210 0 
320 1 0.51 70.00 25.7166 13.6715 0 
321 1 0.48 70.00 25.5227 13.2784 0 
322 1 0.48 70.00 12.3934 11.9537 0 
323 1 0.49 70.00 14.1325 2.7820 0 
324 1 0.48 70.00 22.1069 0.9769 0 
325 1 0.50 70.00 25.7878 6.5104 0 
326 1 0.48 70.00 13.5448 10.8375 0 
327 1 0.48 70.00 26.8195 6.0326 0 
328 1 0.45 70.00 13.2138 4.5179 0 
329 1 0.48 70.00 24.3830 8.4982 0 
330 1 0.47 70.00 23.0518 3.9701 0 
331 1 0.57 70.00 8.2032 2.2224 0 
332 1 0.44 70.00 11.9381 1.5252 0 
333 1 0.45 70.00 22.0689 11.0557 0 
334 1 0.50 70.00 18.8002 2.2568 0 
335 1 0.45 70.00 22.6641 13.0138 0 
336 1 0.41 70.00 21.1561 5.3904 0 
337 1 0.48 70.00 24.6515 7.9795 0 
338 1 0.53 70.00 17.9673 10.7335 0 
339 1 0.51 70.00 11.3221 5.7069 0 
340 1 0.47 70.00 14.1612 10.8230 0 
341 1 0.40 70.00 5.1359 2.1690 0 
342 1 0.44 70.00 9.7447 8.9830 0 
343 1 0.50 70.00 24.5617 2.2302 0 
344 1 0.46 70.00 22.9289 2.6970 0 
345 1 0.47 70.00 2.4301 5.3403 0 
346 1 0.41 70.00 18.4699 13.0323 0 
347 1 0.44 70.00 6.8513 2.3907 0 
348 1 0.44 70.00 4.6132 5.1318 0 
349 1 0.50 70.00 15.5644 13.9340 0 
350 1 0.48 70.00 16.7958 3.8882 0 
351 1 0.45 70.00 10.4145 13.0977 0 
352 1 0.47 70.00 11.1235 13.7977 0 
353 1 0.51 70.00 8.9190 8.9173 0 
354 1 0.46 70.00 14.6901 11.0273 0 
355 1 0.50 70.00 27.0526 3.3938 0 
356 1 0.47 70.00 2.8785 11.9307 0 
357 1 0.44 70.00 6.1736 14.3472 0 
358 1 0.49 70.00 10.7211 3.5704 0 
359 1 0.44 70.00 2.2635 3.6046 0 
360 1 0.50 70.00 5.3950 0.9644 0 
361 1 0.52 70.00 5.2408 8.6093 0 
362 1 0.50 70.00 16.5947 6.4065 0 
363 1 0.47 70.00 9.2694 5.5296 0 
364 1 0.43 70.00 10.1111 7.2640 0 
365 1 0.51 70.00 13.9959 14.1303 0 
366 1 0.44 70.00 19.5215 2.0221 0 
367 1 0.45 70.00 18.7031 9.8494 0 
368 1 0.48 70.00 13.1751 1.5733 0 
369 1 0.44 70.00 10.5031 11.8004 0 
370 1 0.46 70.00 9.9464 0.8302 0 
371 1 0.45 70.00 16.8120 12.4986 0 
372 1 0.50 70.00 24.1822 6.8476 0 
373 1 0.50 70.00 27.7078 7.3400 0 
374 1 0.48 70.00 3.4576 5.6255 0 
375 1 0.48 70.00 13.0485 0.6495 0 
376 1 0.51 70.00 3.7856 4.8972 0 
377 1 0.46 70.00 5.0095 5.9016 0 
378 1 0.51 70.00 20.5292 5.0410 0 
379 1 0.43 70.00 25.1342 8.2770 0 
380 1 0.52 70.00 25.6427 2.2202 0 
381 1 0.51 70.00 8.4924 5.5818 0 
382 1 0.51 70.00 8.1732 2.5360 0 
383 1 0.47 70.00 25.7704 12.8242 0 
384 1 0.43 70.00 18.3378 10.2985 0 
385 1 0.56 70.00 15.2727 1.7476 0 
386 1 0.49 70.00 21.9364 3.5992 0 
387 1 0.47 70.00 10.4186 7.5913 0 
388 1 0.48 70.00 25.6498 3.0016 0 
389 1 0.48 70.00 11.5503 3.9462 0 
390 1 0.48 70.00 15.2388 1.3252 0 
391 1 0.46 70.00 25.5270 12.7943 0 
392 1 0.51 70.00 23.1730 11.5939 0 
393 1 0.42 70.00 25.2382 7.2378 0 
394 1 0.43 70.00 2.5106 9.3923 0 
395 1 0.50 70.00 27.1517 7.6288 0 
396 1 0.46 70.00 4.2887 7.2157 0 
397 1 0.51 70.00 24.0329 7.3068 0 
398 1 0.48 70.00 12.3567 1.1326 0 
399 1 0.45 70.00 23.6488 4.2558 0 
400 1 0.50 70.00 2.4516 7.2687 0 
401 1 0.45 70.00 14.0163 9.2466 0 
402 1 0.48 70.00 23.2668 0.6899 0 
403 1 0.50 70.00 19.7058 5.4825 0 
404 1 0.46 70.00 26.2213 13.5492 0 
405 1 0.55 70.00 18.0508 3.5908 0 
406 1 0.49 70.00 7.2389 4.9946 0 
407 1 0.49 70.00 20.7858 7.6531 0 
408 1 0.46 70.00 11.6874 4.7514 0 
409 1 0.51 70.00 4.3261 8.8168 0 
410 1 0.48 70.00 9.8807 14.6478 0 
411 1 0.48 70.00 18.0282 14.0001 0 
412 1 0.43 70.00 4.2813 11.1401 0 
413 1 0.49 70.00 12.4181 12.3125 0 
414 1 0.48 70.00 0.7723 6.6426 0 
415 1 0.51 70.00 14.5366 9.6743 0 
416 1 0.45 70.00 5.3635 11.6118 0 
417 1 0.52 70.00 16.6569 13.4739 0 
418 1 0.49 70.00 9.8255 6.2615 0 
419 1 0.50 70.00 5.7277 13.7110 0 
420 1 0.49 70.00 3.4264 14.2810 0 
421 1 0.47 70.00 14.5472 1.2056 0 
422 1 0.44 70.00 25.0619 14.1062 0 
423 1 0.48 70.00 14.3470 9.3669 0 
424 1 0.44 70.00 23.9283 4.9257 0 
425 1 0.46 70.00 19.8700 4.4758 0 
426 1 0.46 70.00 23.7975 1.4959 0 
427 1 0.44 70.00 2.3635 12.5056 0 
428 1 0.47 70.00 15.1585 3.0520 0 
429 1 0.53 70.00 5.9262 10.1600 0 
430 1 0.47 70.00 12.9065 1.1582 0 
431 1 0.49 70.00 22.2395 8.9012 0 
432 1 0.45 70.00 18.7046 11.1908 0 
433 1 0.44 70.00 19.3043 10.6205 0 
434 1 0.50 70.00 14.4751 12.3360 0 
435 1 0.45 70.00 3.9168 1.6463 0 
436 1 0.43 70.00 2.0838 2.0113 0 
437 1 0.53 70.00 23.6541 3.9796 0 
438 1 0.45 70.00 22.2214 4.0541 0 
439 1 0.48 70.00 5.5603 9.9182 0 
440 1 0.47 70.00 17.8523 8.6805 0 
441 1 0.46 70.00 22.5919 10.6578 0 
442 1 0.47 70.00 8.6565 3.0472 0 
443 1 0.52 70.00 2.6649 7.2836 0 
444 1 0.47 70.00 12.1101 3.6756 0 
445 1 0.47 70.00 17.6380 8.7066 0 
446 1 0.45 70.00 25.6284 9.5710 0 
447 1 0.50 70.00 13.1375 3.1861 0 
448 1 0.48 70.00 19.6686 5.2609 0 
449 1 0.46 70.00 19.4207 5.9781 0 
450 1 0.45 70.00 8.4483 12.1772 0 
451 1 0.48 70.00 22.2415 11.6757 0 
452 1 0.48 70.00 13.6734 6.0558 0 
453 1 0.47 70.00 1.8590 6.9595 0 
454 1 0.47 70.00 7.4672 1.8974 0 
455 1 0.47 70.00 19.4738 14.1034 0 
456 1 0.47 70.00 23.3290 10.2216 0 
457 1 0.51 70.00 5.8677 4.8663 0 
458 1 0.47 70.00 1.1142 3.6234 0 
459 1 0.48 70.00 19.2286 6.4683 0 
460 1 0.48 70.00 6.2839 1.1291 0 
461 1 0.46 70.00 12.4401 5.5543 0 
462 1 0.47 70.00 21.3904 3.4893 0 
463 1 0.46 70.00 21.7647 9.3474 0 
464 1 0.43 70.00 3.8579 4.5662 0 
465 1 0.49 70.00 22.2087 7.3108 0 
466 1 0.44 70.00 9.0823 11.2614 0 
467 1 0.42 70.00 1.0142 2.5754 0 
468 1 0.41 70.00 6.7875 5.1723 0 
469 1 0.47 70.00 7.5568 3.4921 0 
470 1 0.46 70.00 26.1647 3.4445 0 
471 1 0.50 70.00 12.2639 8.5009 0 
472 1 0.44 70.00 11.6737 13.1794 0 
473 1 0.51 70.00 4.0113 4.1668 0 
474 1 0.51 70.00 4.7182 13.2105 0 
475 1 0.46 70.00 7.8433 9.5146 0 
476 1 0.44 70.00 9.1895 12.7616 0 
477 1 0.47 70.00 16.6755 0.5244 0 
478 1 0.44 70.00 23.6209 13.3513 0 
479 1 0.48 70.00 14.0213 6.0858 0 
480 1 0.49 70.00 17.3494 3.9496 0 
481 1 0.47 70.00 13.7889 3.6618 0 
482 1 0.49 70.00 7.4359 10.4382 0 
483 1 0.48 70.00 7.0241 5.2159 0 
484 1 0.49 70.00 13.5643 13.0460 0 
485 1 0.50 70.00 17.3155 7.4139 0 
486 1 0.49 70.00 19.0828 1.6725 0 
487 1 0.43 70.00 15.9378 0.8748 0 
488 1 0.44 70.00 18.0304 4.5112 0 
489 1 0.48 70.00 18.5280 5.4872 0 
490 1 0.44 70.00 19.4506 10.1649 0 
491 1 0.48 70.00 3.3749 11.4790 0 
492 1 0.48 70.00 27.0525 14.6454 0 
493 1 0.49 70.00 20.3269 2.5108 0 
494 1 0.43 70.00 18.9764 8.3620 0 
495 1 0.48 70.00 15.3943 2.3065 0 
496 1 0.48 70.00 0.7168 9.2860 0 
497 1 0.48 70.00 27.6226 7.5563 0 
498 1 0.43 70.00 18.0175 2.8809 0 
499 1 0.48 70.00 23.2552 11.1077 0 
500 1 0.46 70.00 2.4362 7.0680 0 
501 1 0.49 70.00 2.3166 1.6638 0 
502 1 0.46 70.00 5.6373 9.2196 0 
503 1 0.46 70.00 16.0801 4.8642 0 
504 1 0.48 70.00 8.4196 10.6805 0 
505 1 0.45 70.00 5.1471 2.5894 0 
506 1 0.50 70.00 9.4945 14.3250 0 
507 1 0.44 70.00 8.2561 1.0938 0 
508 1 0.43 70.00 17.9078 12.1462 0 
509 1 0.49 70.00 17.7743 11.0043 0 
510 1 0.51 70.00 20.7890 3.4223 0 
511 1 0.51 70.00 26.8084 2.9559 0 
512 1 0.45 70.00 24.9322 9.4053 0 
513 1 0.48 70.00 15.8509 9.4795 0 
514 1 0.45 70.00 4.6918 13.7681 0 
515 1 0.46 70.00 27.4343 7.2304 0 
516 1 0.48 70.00 0.6760 8.7259 0 
517 1 0.50 70.00 11.3373 9.6548 0 
518 1 0.46 70.00 13.3374 8.3816 0 
519 1 0.46 70.00 6.9824 5.4148 0 
520 1 0.48 70.00 11.8077 10.3309 0 
521 1 0.48 70.00 23.4967 10.7412 0 
522 1 0.49 70.00 5.9938 12.1773 0 
523 1 0.51 70.00 15.0021 5.6978 0 
524 1 0.47 70.00 6.8245 0.8843 0 
525 1 0.47 70.00 10.2395 3.6700 0 
526 1 0.46 70.00 0.9839 3.8532 0 
527 1 0.52 70.00 8.2225 5.8883 0 
528 1 0.51 70.00 24.1572 11.1054 0 
529 1 0.46 70.00 24.4067 7.5775 0 
530 1 0.47 70.00 25.0137 12.3117 0 
531 1 0.50 70.00 24.3957 5.3817 0 
532 1 0.45 70.00 13.8561 13.9421 0 
533 1 0.41 70.00 26.5058 10.1395 0 
534 1 0.45 70.00 5.3923 5.1447 0 
535 1 0.44 70.00 3.2497 9.0273 0 
536 1 0.45 70.00 13.6461 4.5389 0 
537 1 0.43 70.00 27.7083 1.7847 0 
538 1 0.45 70.00 6.3095 7.7663 0 
539 1 0.48 70.00 26.5326 1.9271 0 
540 1 0.49 70.00 10.4015 7.8448 0 
541 1 0.48 70.00 25.7936 9.8163 0 
542 1 0.47 70.00 10.3389 0.6228 0 
543 1 0.47 70.00 25.6977 12.4268 0 
544 1 0.48 70.00 8.0537 6.3520 0 
545 1 0.46 70.00 9.0634 10.2984 0 
546 1 0.42 70.00 26.1356 14.5586 0 
547 1 0.46 70.00 3.2558 13.3892 0 
548 1 0.43 70.00 10.1439 10.5797 0 
549 1 0.46 70.00 5.6523 12.7757 0 
550 1 0.48 70.00 5.2669 14.5230 0 
551 1 0.46 70.00 23.7699 5.4587 0 
552 1 0.49 70.00 3.6714 3.6921 0 
553 1 0.49 70.00 8.4393 2.0378 0 
554 1 0.53 70.00 24.7124 7.0040 0 
555 1 0.49 70.00 23.3344 12.4052 0 
556 1 0.44 70.00 14.9256 3.9291 0 
557 1 0.46 70.00 4.4808 6.4285 0 
558 1 0.50 70.00 8.8749 13.5528 0 
559 1 0.48 70.00 8.8905 5.5800 0 
560 1 0.47 70.00 16.7621 7.3717 0 
561 1 0.44 70.00 0.8289 12.5122 0 
562 1 0.45 70.00 16.0093 2.6541 0 
563 1 0.47 70.00 20.3614 13.5290 0 
564 1 0.52 70.00 19.3452 9.0117 0 
565 1 0.44 70.00 11.5236 10.2906 0 
566 1 0.45 70.00 2.0374 0.7522 0 
567 1 0.46 70.00 21.6385 1.7086 0 
568 1 0.45 70.00 21.0342 1.1958 0 
569 1 0.50 70.00 1.5692 12.9035 0 
570 1 0.46 70.00 16.3473 11.5057 0 
571 1 0.45 70.00 6.9046 4.8619 0 
572 1 0.47 70.00 9.4009 8.2794 0 
573 1 0.47 70.00 14.0128 10.2592 0 
574 1 0.47 70.00 9.6856 5.4623 0 
575 1 0.46 70.00 15.2934 10.5741 0 
576 1 0.48 70.00 15.8743 10.7836 0 
577 1 0.47 70.00 17.6887 12.1876 0 
578 1 0.42 70.00 22.6018 7.8449 0 
579 1 0.51 70.00 4.6933 7.7853 0 
580 1 0.48 70.00 17.4554 9.7943 0 
581 1 0.52 70.00 20.2726 4.1048 0 
582 1 0.45 70.00 4.4961 6.1549 0 
583 1 0.46 70.00 21.8902 13.7924 0 
584 1 0.55 70.00 17.7921 10.5443 0 
585 1 0.46 70.00 2.9852 2.0830 0 
586 1 0.50 70.00 22.3397 6.1025 0 
587 1 0.48 70.00 27.3457 11.9452 0 
588 1 0.50 70.00 14.1057 11.4079 0 
589 1 0.45 70.00 11.1487 2.9036 0 
590 1 0.47 70.00 4.6563 2.8036 0 
591 1 0.47 70.00 8.7013 0.5010 0 
592 1 0.50 70.00 24.4489 2.8396 0 
593 1 0.48 70.00 27.5369 14.0772 0 
594 1 0.52 70.00 4.8127 10.0586 0 
595 1 0.49 70.00 9.3596 8.8125 0 
596 1 0.46 70.00 17.5320 3.5461 0 
597 1 0.47 70.00 10.0712 5.2690 0 
598 1 0.51 70.00 19.4892 1.3201 0 
599 1 0.43 70.00 3.8564 7.2985 0 
600 1 0.48 70.00 20.9558 2.6779 0 
601 1 0.45 70.00 10.4716 6.7726 0 
602 1 0.49 70.00 25.5068 6.4540 0 
603 1 0.47 70.00 5.7864 10.7241 0 
604 1 0.46 70.00 0.9261 11.9097 0 
605 1 0.46 70.00 19.3032 12.6388 0 
606 1 0.48 70.00 12.2358 13.7596 0 
607 1 0.48 70.00 26.1380 4.0517 0 
608 1 0.46 70.00 2.6700 4.1111 0 
609 1 0.49 70.00 11.2942 9.8592 0 
610 1 0.45 70.00 7.3977 8.6162 0 
611 1 0.43 70.00 2.9030 13.8707 0 
612 1 0.45 70.00 25.6717 7.9161 0 
613 1 0.45 70.00 5.6338 9.4767 0 
614 1 0.49 70.00 21.0498 9.5631 0 
615 1 0.48 70.00 4.9793 8.9546 0 
616 1 0.47 70.00 3.0718 10.2475 0 
617 1 0.46 70.00 10.2216 10.9429 0 
618 1 0.49 70.00 19.8160 1.0852 0 
619 1 0.42 70.00 6.5320 6.2377 0 
620 1 0.44 70.00 23.3468 13.3815 0 
621 1 0.49 70.00 24.2755 4.7778 0 
622 1 0.49 70.00 4.7546 6.0874 0 
623 1 0.47 70.00 23.3098 13.0439 0 
624 1 0.50 70.00 21.0502 8.2963 0 
625 1 0.46 70.00 23.6005 1.4165 0 
626 1 0.47 70.00 20.2386 3.2877 0 
627 1 0.45 70.00 11.9005 9.2839 0 
628 1 0.51 70.00 3.0306 0.5836 0 
629 1 0.47 70.00 18.6010 3.9807 0 
630 1 0.52 70.00 23.9246 12.7816 0 
631 1 0.49 70.00 5.6753 9.7232 0 
632 1 0.45 70.00 8.3314 0.5668 0 
633 1 0.50 70.00 1.6574 12.4523 0 
634 1 0.47 70.00 3.6567 11.0630 0 
635 1 0.48 70.00 23.6177 11.1504 0 
636 1 0.45 70.00 21.4174 10.1535 0 
637 1 0.46 70.00 8.5506 4.1659 0 
638 1 0.50 70.00 24.5056 3.7347 0 
639 1 0.48 70.00 26.3159 12.3379 0 
640 1 0.44 70.00 1.9563 7.3031 0 
641 1 0.47 70.00 18.8597 8.0461 0 
642 1 0.45 70.00 18.7468 0.7339 0 
643 1 0.43 70.00 24.1521 7.6117 0 
644 1 0.42 70.00 22.1200 4.5213 0 
645 1 0.45 70.00 25.9788 8.9761 0 
646 1 0.49 70.00 23.6671 4.6392 0 
647 1 0.51 70.00 14.6196 14.1327 0 
648 1 0.48 70.00 2.7812 3.2427 0 
649 1 0.49 70.00 15.8136 11.3825 0 
650 1 0.45 70.00 18.5991 3.3105 0 
651 1 0.47 70.00 4.9258 1.5195 0 
652 1 0.45 70.00 15.7412 7.2873 0 
653 1 0.50 70.00 12.4601 9.8445 0 
654 1 0.46 70.00 16.5520 9.7141 0 
655 1 0.54 70.00 23.6860 12.0316 0 
656 1 0.48 70.00 4.9610 4.6918 0 
657 1 0.44 70.00 19.1033 10.3034 0 
658 1 0.46 70.00 25.8802 6.1924 0 
659 1 0.47 70.00 27.2529 11.4092 0 
660 1 0.44 70.00 2.8161 0.9939 0 
661 1 0.51 70.00 7.1908 9.6961 0 
662 1 0.49 70.00 10.8408 6.5426 0 
663 1 0.51 70.00 6.5369 10.0955 0 
664 1 0.46 70.00 3.1210 11.5804 0 
665 1 0.46 70.00 17.8624 11.9509 0 
666 1 0.41 70.00 14.3615 7.9341 0 
667 1 0.51 70.00 6.2975 1.7856 0 
668 1 0.55 70.00 10.7619 8.9242 0 
669 1 0.47 70.00 27.1449 8.1829 0 
670 1 0.45 70.00 9.8633 12.6360 0 
671 1 0.45 70.00 21.4083 11.5784 0 
672 1 0.46 70.00 12.9047 5.4408 0 
673 1 0.49 70.00 23.5042 6.3420 0 
674 1 0.40 70.00 17.1901 4.7086 0 
675 1 0.49 70.00 9.7770 10.1208 0 
676 1 0.44 70.00 26.5086 4.8610 0 
677 1 0.46 70.00 14.8791 13.1391 0 
678 1 0.50 70.00 7.6360 2.8008 0 
679 1 0.50 70.00 23.7248 8.5320 0 
680 1 0.50 70.00 25.7955 13.1403 0 
681 1 0.49 70.00 1.4136 4.8329 0 
682 1 0.48 70.00 7.7654 7.8158 0 
683 1 0.48 70.00 27.0239 9.6449 0 
684 1 0.51 70.00 26.6416 11.6767 0 
685 1 0.45 70.00 23.9263 6.9783 0 
686 1 0.49 70.00 2.0618 8.6884 0 
687 1 0.49 70.00 21.7773 2.0198 0 
688 1 0.47 70.00 21.8706 0.6345 0 
689 1 0.46 70.00 10.3443 1.1159 0 
690 1 0.49 70.00 1.4752 6.3182 0 
691 1 0.40 70.00 21.2951 5.8879 0 
692 1 0.52 70.00 0.9417 7.3022 0 
693 1 0.48 70.00 23.1224 2.5975 0 
694 1 0.51 70.00 26.7954 12.6335 0 
695 1 0.49 70.00 14.1481 14.2609 0 
696 1 0.48 70.00 10.2718 14.4495 0 
697 1 0.44 70.00 15.7582 3.6911 0 
698 1 0.45 70.00 18.8355 6.8825 0 
699 1 0.43 70.00 7.6633 2.1871 0 
700 1 0.50 70.00 0.6205 1.4946 0 
701 1 0.45 70.00 2.6712 9.9261 0 
702 1 0.51 70.00 26.3091 9.2035 0 
703 1 0.44 70.00 21.7186 6.6506 0 
704 1 0.47 70.00 13.9466 0.9744 0 
705 1 0.51 70.00 7.5943 9.4345 0 
706 1 0.48 70.00 1.3721 13.4395 0 
707 1 0.51 70.00 21.2993 9.4727 0 
708 1 0.50 70.00 25.2591 2.0726 0 
709 1 0.42 70.00 14.5220 2.3494 0 
710 1 0.52 70.00 27.3287 12.2101 0 
711 1 0.48 70.00 15.6942 2.9696 0 
712 1 0.47 70.00 3.5394 3.0999 0 
713 1 0.47 70.00 10.1154 1.2900 0 
714 1 0.49 70.00 5.6968 10.0818 0 
715 1 0.49 70.00 14.6993 5.1247 0 
716 1 0.46 70.00 13.9703 6.4892 0 
717 1 0.45 70.00 5.7847 0.8945 0 
718 1 0.45 70.00 23.3751 1.6922 0 
719 1 0.44 70.00 3.1644 4.8282 0 
720 1 0.42 70.00 16.7506 2.2527 0 
721 1 0.45 70.00 14.9008 14.2350 0 
722 1 0.50 70.00 8.5701 14.7621 0 
723 1 0.43 70.00 16.4226 11.8565 0 
724 1 0.50 70.00 4.2461 13.3079 0 
725 1 0.48 70.00 11.3512 4.8715 0 
726 1 0.43 70.00 24.0313 3.0041 0 
727 1 0.47 70.00 18.3087 1.5397 0 
728 1 0.43 70.00 24.8445 11.2368 0 
729 1 0.52 70.00 17.4943 8.9112 0 
730 1 0.52 70.00 15.9228 3.1661 0 
731 1 0.46 70.00 1.2591 2.1987 0 
732 1 0.45 70.00 18.3820 12.6024 0 
733 1 0.46 70.00 25.1741 7.5670 0 
734 1 0.50 70.00 8.4785 0.7027 0 
735 1 0.42 70.00 26.5195 12.8054 0 
736 1 0.49 70.00 20.8610 5.4169 0 
737 1 0.43 70.00 15.0085 5.9348 0 
738 1 0.48 70.00 0.6544 0.6376 0 
739 1 0.47 70.00 17.3091 12.0568 0 
740 1 0.44 70.00 6.4402 4.3303 0 
741 1 0.47 70.00 15.6236 2.7709 0 
742 1 0.51 70.00 23.3531 9.7325 0 
743 1 0.42 70.00 4.7754 9.7054 0 
744 1 0.42 70.00 1.7644 3.2229 0 
745 1 0.48 70.00 18.2917 10.4990 0 
746 1 0.49 70.00 13.9942 1.4503 0 
747 1 0.45 70.00 27.4166 12.5074 0 
748 1 0.43 70.00 1.8341 14.1218 0 
749 1 0.49 70.00 6.6477 7.8277 0 
750 1 0.39 70.00 10.8345 6.8112 0 
751 1 0.53 70.00 5.8432 2.6055 0 
752 1 0.48 70.00 5.5002 10.4641 0 
753 1 0.50 70.00 2.6650 6.3382 0 
754 1 0.55 70.00 0.9673 8.1723 0 
755 1 0.45 70.00 13.4258 12.4372 0 
756 1 0.45 70.00 13.5933 1.5458 0 
757 1 0.49 70.00 17.3359 4.9109 0 
758 1 0.47 70.00 23.6142 10.0070 0 
759 1 0.43 70.00 7.6503 7.3563 0 
760 1 0.50 70.00 10.7061 8.0802 0 
761 1 0.45 70.00 9.7148 6.6161 0 
762 1 0.44 70.00 2.7427 10.4769 0 
763 1 0.45 70.00 19.3939 4.6947 0 
764 1 0.46 70.00 11.2572 4.1335 0 
765 1 0.43 70.00 4.0770 13.6054 0 
766 1 0.51 70.00 10.0596 0.5983 0 
767 1 0.49 70.00 26.0547 10.6047 0 
768 1 0.48 70.00 5.6270 6.9511 0 
769 1 0.45 70.00 1.4441 9.5154 0 
770 1 0.49 70.00 8.3310 13.5108 0 
771 1 0.51 70.00 9.1578 1.1773 0 
772 1 0.50 70.00 5.1748 1.0274 0 
773 1 0.45 70.00 4.5574 8.1257 0 
774 1 0.46 70.00 26.4648 13.2698 0 
775 1 0.50 70.00 23.2373 8.5463 0 
776 1 0.41 70.00 9.5465 9.3698 0 
777 1 0.52 70.00 15.1571 14.7201 0 
778 1 0.42 70.00 0.8551 12.1732 0 
779 1 0.55 70.00 26.1714 7.4247 0 
780 1 0.45 70.00 13.8941 2.5621 0 
781 1 0.48 70.00 27.6454 6.0621 0 
782 1 0.45 70.00 25.3928 10.6645 0 
783 1 0.46 70.00 5.3492 7.0460 0 
784 1 0.47 70.00 9.5838 5.7961 0 
785 1 0.51 70.00 10.8721 7.7723 0 
786 1 0.41 70.00 11.3650 14.0706 0 
787 1 0.49 70.00 5.5993 3.3669 0 
788 1 0.46 70.00 3.8718 5.4114 0 
789 1 0.44 70.00 4.1032 7.0857 0 
790 1 0.42 70.00 11.0941 13.9963 0 
791 1 0.45 70.00 6.2376 5.6629 0 
792 1 0.49 70.00 23.6624 14.2240 0 
793 1 0.46 70.00 6.3358 12.7271 0 
794 1 0.50 70.00 10.5259 12.2614 0 
795 1 0.45 70.00 27.0113 13.1461 0 
796 1 0.45 70.00 5.7727 1.7593 0 
797 1 0.52 70.00 20.0430 11.0575 0 
798 1 0.42 70.00 5.9183 3.9349 0 
799 1 0.47 70.00 7.0001 6.6181 0 
800 1 0.54 70.00 16.9418 13.5918 0 
801 1 0.46 70.00 9.5776 6.3842 0 
802 1 0.46 70.00 10.3400 4.4244 0 
803 1 0.39 70.00 5.4781 13.2513 0 
804 1 0.43 70.00 23.5408 1.8603 0 
805 1 0.48 70.00 22.4764 3.5729 0 
806 1 0.49 70.00 18.1465 11.9047 0 
807 1 0.49 70.00 20.6575 12.2096 0 
808 1 0.45 70.00 1.8736 8.9300 0 
809 1 0.43 70.00 2.1630 4.3341 0 
810 1 0.46 70.00 14.5540 2.6796 0 
811 1 0.47 70.00 14.3956 11.1601 0 
812 1 0.47 70.00 22.3605 11.1717 0 
813 1 0.48 70.00 9.4334 6.6228 0 
814 1 0.47 70.00 24.1567 10.4685 0 
815 1 0.51 70.00 16.2578 2.2647 0 
816 1 0.43 70.00 20.4803 12.9901 0 
817 1 0.49 70.00 23.0263 14.5849 0 
818 1 0.47 70.00 19.0954 10.7996 0 
819 1 0.50 70.00 4.6281 6.9573 0 
820 1 0.48 70.00 21.7408 4.0754 0 
821 1 0.43 70.00 7.2399 12.1926 0 
822 1 0.43 70.00 20.8502 4.0525 0 
823 1 0.39 70.00 4.8898 3.4789 0 
824 1 0.51 70.00 16.2760 10.6457 0 
825 1 0.44 70.00 8.8512 10.7204 0 
826 1 0.44 70.00 19.2387 9.5526 0 
827 1 0.50 70.00 8.0037 13.9198 0 
828 1 0.46 70.00 4.7280 11.9331 0 
829 1 0.46 70.00 0.5399 10.0581 0 
830 1 0.44 70.00 13.2242 2.5559 0 
831 1 0.45 70.00 13.7864 7.3699 0 
832 1 0.46 70.00 13.7469 10.2910 0 
833 1 0.46 70.00 19.5633 7.2033 0 
834 1 0.40 70.00 26.1251 0.9837 0 
835 1 0.46 70.00 16.1912 5.1132 0 
836 1 0.47 70.00 16.0795 13.8484 0 
837 1 0.50 70.00 7.5718 6.1712 0 
838 1 0.49 70.00 19.5529 1.7654 0 
839 1 0.54 70.00 26.1791 13.2822 0 
840 1 0.46 70.00 15.8744 13.3373 0 
841 1 0.53 70.00 12.2069 5.2092 0 
842 1 0.46 70.00 20.9420 0.6553 0 
843 1 0.49 70.00 8.3481 3.8355 0 
844 1 0.44 70.00 27.7826 12.0694 0 
845 1 0.42 70.00 25.5179 11.6240 0 
846 1 0.40 70.00 27.0065 2.0597 0 
847 1 0.50 70.00 24.8752 0.9023 0 
848 1 0.52 70.00 25.7733 5.7381 0 
849 1 0.45 70.00 8.7253 11.4833 0 
850 1 0.49 70.00 21.6880 6.4243 0 
851 1 0.47 70.00 7.0147 14.7985 0 
852 1 0.49 70.00 8.6995 5.0590 0 
853 1 0.47 70.00 1.2189 7.4999 0 
854 1 0.51 70.00 27.0082 8.5193 0 
855 1 0.44 70.00 20.3694 11.2419 0 
856 1 0.46 70.00 17.9107 12.3967 0 