# LAMMPS data file for rigid bodies

3780 atoms

2 atom types

0.0 	 28.0 	 xlo xhi 
0.0 	 15.0 	 ylo yhi 
-1.0 	 1.0 	 zlo zhi 

Atoms

1 1 0.48 70.00 4.1578 9.3280 0 
2 1 0.45 70.00 4.9056 13.1856 0 
3 1 0.49 70.00 6.4201 4.4943 0 
4 1 0.46 70.00 0.5327 7.0741 0 
5 1 0.48 70.00 18.5281 3.5606 0 
6 1 0.46 70.00 20.5676 12.8448 0 
7 1 0.41 70.00 19.0053 1.4839 0 
8 1 0.42 70.00 9.8369 5.9384 0 
9 1 0.47 70.00 14.5502 3.8678 0 
10 1 0.51 70.00 1.0206 6.0414 0 
11 1 0.43 70.00 16.5796 6.1395 0 
12 1 0.46 70.00 22.2074 8.1294 0 
13 1 0.44 70.00 23.4524 5.9129 0 
14 1 0.48 70.00 5.7587 9.5829 0 
15 1 0.51 70.00 1.5349 2.2639 0 
16 1 0.44 70.00 22.9217 9.6622 0 
17 1 0.45 70.00 7.0550 9.0627 0 
18 1 0.48 70.00 15.5906 7.0531 0 
19 1 0.47 70.00 14.9906 6.0555 0 
20 1 0.45 70.00 11.9272 14.1332 0 
21 1 0.56 70.00 8.2047 7.8557 0 
22 1 0.49 70.00 16.3274 4.0604 0 
23 1 0.44 70.00 27.2547 10.6751 0 
24 1 0.46 70.00 24.6329 8.0088 0 
25 1 0.52 70.00 23.5041 3.7175 0 
26 1 0.48 70.00 2.3501 11.1603 0 
27 1 0.47 70.00 16.4504 3.1542 0 
28 1 0.44 70.00 8.7740 13.8365 0 
29 1 0.41 70.00 11.6171 0.9730 0 
30 1 0.49 70.00 16.4652 0.5918 0 
31 1 0.46 70.00 2.9878 7.8238 0 
32 1 0.46 70.00 22.9084 13.8023 0 
33 1 0.44 70.00 9.7364 8.4679 0 
34 1 0.48 70.00 4.0774 14.1573 0 
35 1 0.50 70.00 10.7812 1.0537 0 
36 1 0.46 70.00 6.6233 3.4605 0 
37 1 0.47 70.00 21.7052 11.4203 0 
38 1 0.43 70.00 1.9778 4.8996 0 
39 1 0.43 70.00 15.2722 11.6645 0 
40 1 0.49 70.00 27.2036 12.7666 0 
41 1 0.48 70.00 16.8508 3.4341 0 
42 1 0.48 70.00 9.2757 6.0829 0 
43 1 0.46 70.00 10.2426 1.5102 0 
44 1 0.54 70.00 1.9951 7.1788 0 
45 1 0.46 70.00 14.4847 13.3426 0 
46 1 0.53 70.00 2.1489 4.1520 0 
47 1 0.51 70.00 13.0409 8.8221 0 
48 1 0.46 70.00 18.3851 4.4703 0 
49 1 0.52 70.00 19.3993 14.4626 0 
50 1 0.50 70.00 4.9576 10.3000 0 
51 1 0.48 70.00 23.5814 9.5883 0 
52 1 0.49 70.00 11.5591 14.2613 0 
53 1 0.45 70.00 27.5434 12.4143 0 
54 1 0.47 70.00 16.1972 1.3761 0 
55 1 0.47 70.00 16.2143 10.1775 0 
56 1 0.52 70.00 20.2084 9.5427 0 
57 1 0.49 70.00 4.5306 11.9177 0 
58 1 0.49 70.00 0.6282 9.6151 0 
59 1 0.44 70.00 4.2908 6.9466 0 
60 1 0.47 70.00 9.2466 3.4711 0 
61 1 0.46 70.00 5.1825 4.4214 0 
62 1 0.39 70.00 3.8030 11.7177 0 
63 1 0.49 70.00 20.0153 3.9124 0 
64 1 0.48 70.00 11.7396 0.7113 0 
65 1 0.48 70.00 19.4127 9.7700 0 
66 1 0.51 70.00 23.8331 3.2158 0 
67 1 0.50 70.00 22.4117 11.2627 0 
68 1 0.47 70.00 20.5526 9.9969 0 
69 1 0.48 70.00 26.1905 11.5437 0 
70 1 0.53 70.00 4.4593 4.8406 0 
71 1 0.45 70.00 10.7773 5.9697 0 
72 1 0.48 70.00 26.3478 8.5684 0 
73 1 0.48 70.00 24.7901 10.1563 0 
74 1 0.49 70.00 6.6739 11.9862 0 
75 1 0.50 70.00 18.9463 10.6971 0 
76 1 0.46 70.00 9.4808 6.0550 0 
77 1 0.48 70.00 3.7679 7.2297 0 
78 1 0.48 70.00 15.4105 7.3243 0 
79 1 0.46 70.00 20.7827 4.5235 0 
80 1 0.43 70.00 25.6607 7.5469 0 
81 1 0.52 70.00 13.1751 5.5213 0 
82 1 0.48 70.00 23.9031 6.1927 0 
83 1 0.45 70.00 25.5176 3.7107 0 
84 1 0.48 70.00 25.3484 5.1792 0 
85 1 0.49 70.00 2.2518 7.7942 0 
86 1 0.47 70.00 14.0967 1.6117 0 
87 1 0.44 70.00 20.6613 3.7954 0 
88 1 0.46 70.00 14.1384 9.6996 0 
89 1 0.43 70.00 2.0703 13.9474 0 
90 1 0.45 70.00 10.4820 3.8101 0 
91 1 0.50 70.00 3.9791 5.2211 0 
92 1 0.47 70.00 24.7826 2.4945 0 
93 1 0.46 70.00 7.9419 9.9859 0 
94 1 0.48 70.00 21.2846 5.6309 0 
95 1 0.51 70.00 24.8496 7.9923 0 
96 1 0.48 70.00 10.3938 8.1509 0 
97 1 0.45 70.00 3.4685 1.8052 0 
98 1 0.44 70.00 11.1331 11.8486 0 
99 1 0.47 70.00 4.3219 10.5511 0 
100 1 0.48 70.00 0.6192 6.1565 0 
101 1 0.50 70.00 18.3175 4.1023 0 
102 1 0.47 70.00 26.5875 14.3882 0 
103 1 0.45 70.00 9.2597 2.3352 0 
104 1 0.46 70.00 9.5573 5.1211 0 
105 1 0.42 70.00 20.4091 11.3064 0 
106 1 0.53 70.00 22.6549 11.4650 0 
107 1 0.44 70.00 17.6343 9.9658 0 
108 1 0.44 70.00 12.8554 9.7303 0 
109 1 0.46 70.00 5.3068 13.7668 0 
110 1 0.47 70.00 26.4032 12.6311 0 
111 1 0.44 70.00 8.8822 5.9744 0 
112 1 0.49 70.00 15.9885 13.8891 0 
113 1 0.49 70.00 16.0612 10.5075 0 
114 1 0.48 70.00 15.9902 6.4802 0 
115 1 0.43 70.00 9.7373 2.6328 0 
116 1 0.43 70.00 14.4314 14.6514 0 
117 1 0.45 70.00 8.8668 1.6505 0 
118 1 0.50 70.00 6.8830 10.0344 0 
119 1 0.49 70.00 2.9628 4.3017 0 
120 1 0.44 70.00 19.4724 5.6770 0 
121 1 0.47 70.00 21.3256 12.4387 0 
122 1 0.51 70.00 6.6535 4.1784 0 
123 1 0.51 70.00 7.0434 11.2518 0 
124 1 0.46 70.00 3.8341 9.6320 0 
125 1 0.48 70.00 4.8674 11.6185 0 
126 1 0.42 70.00 13.3735 2.0310 0 
127 1 0.46 70.00 3.6992 5.3268 0 
128 1 0.45 70.00 3.7462 12.9041 0 
129 1 0.47 70.00 23.6430 8.9413 0 
130 1 0.45 70.00 5.3930 3.9061 0 
131 1 0.47 70.00 24.1188 5.7821 0 
132 1 0.43 70.00 17.3318 1.5115 0 
133 1 0.47 70.00 10.1828 13.0554 0 
134 1 0.52 70.00 0.5625 9.4155 0 
135 1 0.44 70.00 6.3051 7.0189 0 
136 1 0.48 70.00 25.1444 3.2979 0 
137 1 0.45 70.00 9.3862 8.5009 0 
138 1 0.49 70.00 18.4120 14.0865 0 
139 1 0.51 70.00 3.9044 5.7754 0 
140 1 0.48 70.00 7.2491 4.1101 0 
141 1 0.44 70.00 14.9742 6.4361 0 
142 1 0.46 70.00 25.1455 0.8466 0 
143 1 0.43 70.00 22.8198 12.9091 0 
144 1 0.49 70.00 11.4132 2.9450 0 
145 1 0.55 70.00 5.0598 10.7462 0 
146 1 0.43 70.00 16.1974 0.6288 0 
147 1 0.47 70.00 7.3956 14.6385 0 
148 1 0.44 70.00 21.5729 3.6354 0 
149 1 0.43 70.00 9.9187 3.2689 0 
150 1 0.44 70.00 11.6765 8.3500 0 
151 1 0.44 70.00 6.0402 2.1312 0 
152 1 0.44 70.00 9.8071 13.5055 0 
153 1 0.50 70.00 18.9170 2.4217 0 
154 1 0.50 70.00 5.6724 6.2304 0 
155 1 0.42 70.00 25.5259 5.9177 0 
156 1 0.46 70.00 3.5417 0.9679 0 
157 1 0.47 70.00 23.6481 7.8886 0 
158 1 0.47 70.00 17.4083 5.8572 0 
159 1 0.48 70.00 6.8774 9.3666 0 
160 1 0.46 70.00 15.6466 12.3898 0 
161 1 0.51 70.00 10.5944 1.9107 0 
162 1 0.38 70.00 9.2958 8.3156 0 
163 1 0.48 70.00 19.3489 11.1077 0 
164 1 0.45 70.00 12.2779 12.5722 0 
165 1 0.47 70.00 6.3291 4.1596 0 
166 1 0.42 70.00 21.1738 2.6230 0 
167 1 0.50 70.00 27.2986 14.2136 0 
168 1 0.49 70.00 13.7232 7.4303 0 
169 1 0.49 70.00 27.7258 7.2711 0 
170 1 0.47 70.00 6.1576 12.2209 0 
171 1 0.48 70.00 5.6409 12.1192 0 
172 1 0.50 70.00 19.0180 4.9427 0 
173 1 0.44 70.00 22.5083 8.0929 0 
174 1 0.44 70.00 24.6171 6.2414 0 
175 1 0.49 70.00 24.4442 6.6468 0 
176 1 0.52 70.00 1.4060 2.4333 0 
177 1 0.45 70.00 18.3469 9.9824 0 
178 1 0.53 70.00 12.7853 4.5383 0 
179 1 0.51 70.00 26.5894 1.8222 0 
180 1 0.46 70.00 25.4778 7.3060 0 
181 1 0.46 70.00 25.7332 13.9585 0 
182 1 0.49 70.00 0.9677 3.5314 0 
183 1 0.49 70.00 19.1473 7.5997 0 
184 1 0.46 70.00 24.7290 9.6547 0 
185 1 0.46 70.00 24.5468 1.4057 0 
186 1 0.47 70.00 26.6231 13.1252 0 
187 1 0.45 70.00 1.3203 10.2985 0 
188 1 0.47 70.00 4.0144 14.6638 0 
189 1 0.45 70.00 11.9200 5.9101 0 
190 1 0.44 70.00 15.0543 10.1715 0 
191 1 0.46 70.00 2.8768 14.6237 0 
192 1 0.41 70.00 12.8582 2.5031 0 
193 1 0.52 70.00 3.6034 12.5907 0 
194 1 0.55 70.00 4.7382 12.6531 0 
195 1 0.47 70.00 23.5412 7.6164 0 
196 1 0.45 70.00 19.9376 11.5475 0 
197 1 0.50 70.00 7.9805 3.8495 0 
198 1 0.45 70.00 9.7038 6.1633 0 
199 1 0.45 70.00 21.1157 4.2378 0 
200 1 0.40 70.00 10.2409 8.9800 0 
201 1 0.51 70.00 8.6722 4.6294 0 
202 1 0.47 70.00 17.8948 13.7311 0 
203 1 0.50 70.00 13.5447 8.6652 0 
204 1 0.45 70.00 21.9704 6.0946 0 
205 1 0.44 70.00 22.1681 5.2398 0 
206 1 0.44 70.00 19.8895 13.0151 0 
207 1 0.47 70.00 19.1417 6.6170 0 
208 1 0.46 70.00 15.0723 0.8412 0 
209 1 0.48 70.00 13.6130 0.6905 0 
210 1 0.50 70.00 11.9194 9.9835 0 
211 1 0.43 70.00 7.4302 9.2432 0 
212 1 0.53 70.00 6.0887 0.5829 0 
213 1 0.49 70.00 9.5432 2.9147 0 
214 1 0.51 70.00 3.5537 14.6634 0 
215 1 0.50 70.00 12.9370 11.1850 0 
216 1 0.50 70.00 21.3883 9.2614 0 
217 1 0.49 70.00 7.3536 1.0608 0 
218 1 0.48 70.00 24.8364 1.0543 0 
219 1 0.49 70.00 25.2341 13.4309 0 
220 1 0.46 70.00 7.6692 10.0596 0 
221 1 0.46 70.00 21.7575 12.0071 0 
222 1 0.53 70.00 24.4057 9.0244 0 
223 1 0.48 70.00 1.2081 5.3573 0 
224 1 0.44 70.00 17.9143 2.0420 0 
225 1 0.45 70.00 10.1014 3.3803 0 
226 1 0.46 70.00 24.4114 9.5673 0 
227 1 0.46 70.00 12.2533 11.5734 0 
228 1 0.44 70.00 4.5937 8.5279 0 
229 1 0.50 70.00 8.5173 5.2502 0 
230 1 0.44 70.00 26.4764 1.2749 0 
231 1 0.50 70.00 10.0841 5.6903 0 
232 1 0.43 70.00 19.2696 0.6156 0 
233 1 0.47 70.00 8.2431 13.5122 0 
234 1 0.52 70.00 6.4671 9.0424 0 
235 1 0.50 70.00 24.8100 11.6777 0 
236 1 0.47 70.00 24.4998 5.2721 0 
237 1 0.52 70.00 3.3424 1.2569 0 
238 1 0.50 70.00 1.0402 9.1070 0 
239 1 0.44 70.00 9.3770 9.2174 0 
240 1 0.46 70.00 2.0564 1.2413 0 
241 1 0.47 70.00 23.0069 14.1368 0 
242 1 0.51 70.00 24.0741 4.8648 0 
243 1 0.46 70.00 7.6678 10.7318 0 
244 1 0.55 70.00 2.7884 0.6905 0 
245 1 0.47 70.00 13.4598 12.1536 0 
246 1 0.46 70.00 10.4972 11.9179 0 
247 1 0.43 70.00 21.2311 12.8900 0 
248 1 0.50 70.00 3.8236 11.9868 0 
249 1 0.48 70.00 23.3759 9.9960 0 
250 1 0.50 70.00 3.2866 10.4516 0 
251 1 0.44 70.00 26.7445 8.2774 0 
252 1 0.45 70.00 2.2518 5.6924 0 
253 1 0.46 70.00 21.0387 8.4293 0 
254 1 0.40 70.00 16.4909 5.1402 0 
255 1 0.44 70.00 20.6620 9.8160 0 
256 1 0.47 70.00 14.1542 7.8252 0 
257 1 0.47 70.00 1.8917 12.8897 0 
258 1 0.46 70.00 1.3857 10.4960 0 
259 1 0.45 70.00 19.5154 7.2300 0 
260 1 0.46 70.00 23.4878 8.2423 0 
261 1 0.48 70.00 18.7775 10.5497 0 
262 1 0.41 70.00 12.2864 7.3640 0 
263 1 0.50 70.00 21.4483 11.7115 0 
264 1 0.42 70.00 17.1952 12.6157 0 
265 1 0.43 70.00 6.8750 5.8005 0 
266 1 0.47 70.00 15.9799 9.6883 0 
267 1 0.48 70.00 18.0948 8.6721 0 
268 1 0.47 70.00 13.9141 1.2268 0 
269 1 0.52 70.00 27.7007 4.1594 0 
270 1 0.46 70.00 10.1048 0.5123 0 
271 1 0.44 70.00 13.1441 13.1902 0 
272 1 0.46 70.00 18.0467 11.0246 0 
273 1 0.52 70.00 18.4433 6.7670 0 
274 1 0.48 70.00 18.3868 8.7314 0 
275 1 0.46 70.00 18.1620 6.7271 0 
276 1 0.47 70.00 1.6046 1.1253 0 
277 1 0.47 70.00 25.9781 2.9527 0 
278 1 0.44 70.00 0.7917 13.7697 0 
279 1 0.51 70.00 24.4113 3.5684 0 
280 1 0.47 70.00 4.7421 7.0385 0 
281 1 0.44 70.00 26.6714 11.7897 0 
282 1 0.42 70.00 24.1833 6.0542 0 
283 1 0.45 70.00 25.0072 7.2759 0 
284 1 0.47 70.00 7.4704 10.9143 0 
285 1 0.47 70.00 15.5811 14.3440 0 
286 1 0.51 70.00 13.4101 3.9871 0 
287 1 0.47 70.00 2.4441 13.7080 0 
288 1 0.48 70.00 16.2294 3.3828 0 
289 1 0.43 70.00 13.8116 7.7124 0 
290 1 0.46 70.00 9.1854 14.6057 0 
291 1 0.47 70.00 20.9642 11.8602 0 
292 1 0.44 70.00 14.8277 9.9511 0 
293 1 0.51 70.00 1.3123 12.5911 0 
294 1 0.46 70.00 4.8032 6.5133 0 
295 1 0.46 70.00 3.0344 7.2084 0 
296 1 0.44 70.00 18.1945 10.2145 0 
297 1 0.49 70.00 23.4659 3.3675 0 
298 1 0.41 70.00 3.6188 9.1329 0 
299 1 0.49 70.00 10.7094 3.2124 0 
300 1 0.47 70.00 4.3250 0.5567 0 
301 1 0.46 70.00 10.4729 7.2749 0 
302 1 0.44 70.00 22.9865 13.4431 0 
303 1 0.48 70.00 26.3220 8.0577 0 
304 1 0.47 70.00 18.3052 6.5871 0 
305 1 0.50 70.00 8.4204 5.7724 0 
306 1 0.43 70.00 2.0465 5.9536 0 
307 1 0.43 70.00 9.6153 9.2515 0 
308 1 0.48 70.00 24.1230 4.3873 0 
309 1 0.43 70.00 18.4147 7.3051 0 
310 1 0.50 70.00 17.6462 10.2725 0 
311 1 0.47 70.00 18.5586 12.8379 0 
312 1 0.47 70.00 1.6994 7.8576 0 
313 1 0.49 70.00 4.5977 8.1332 0 
314 1 0.44 70.00 1.5378 12.0643 0 
315 1 0.54 70.00 4.0008 1.4761 0 
316 1 0.51 70.00 6.2766 13.2067 0 
317 1 0.42 70.00 18.9292 12.7361 0 
318 1 0.51 70.00 12.4991 6.3601 0 
319 1 0.45 70.00 6.3669 7.2359 0 
320 1 0.55 70.00 10.1447 2.2705 0 
321 1 0.46 70.00 27.5080 4.5332 0 
322 1 0.47 70.00 17.7271 7.1363 0 
323 1 0.47 70.00 20.6428 12.5612 0 
324 1 0.49 70.00 16.9708 7.4773 0 
325 1 0.49 70.00 2.4032 12.8598 0 
326 1 0.48 70.00 14.3652 8.8626 0 
327 1 0.48 70.00 15.0590 7.3646 0 
328 1 0.46 70.00 11.3209 3.6572 0 
329 1 0.46 70.00 10.9576 9.1762 0 
330 1 0.42 70.00 18.3349 3.2458 0 
331 1 0.46 70.00 2.5571 6.1817 0 
332 1 0.45 70.00 15.8826 4.4479 0 
333 1 0.44 70.00 5.3318 8.1385 0 
334 1 0.47 70.00 5.8073 3.7788 0 
335 1 0.51 70.00 13.1786 4.7120 0 
336 1 0.52 70.00 7.0380 4.5767 0 
337 1 0.48 70.00 4.8404 12.0483 0 
338 1 0.49 70.00 7.8844 10.7675 0 
339 1 0.52 70.00 4.7460 1.1862 0 
340 1 0.52 70.00 12.2246 3.1744 0 
341 1 0.52 70.00 11.9927 14.5612 0 
342 1 0.46 70.00 27.1458 3.7028 0 
343 1 0.49 70.00 8.1131 11.9331 0 
344 1 0.46 70.00 2.3104 10.3298 0 
345 1 0.47 70.00 15.5531 7.6165 0 
346 1 0.49 70.00 25.8918 5.9918 0 
347 1 0.43 70.00 0.5887 11.4582 0 
348 1 0.46 70.00 27.1484 2.7452 0 
349 1 0.43 70.00 21.1251 10.3967 0 
350 1 0.49 70.00 27.1066 3.2109 0 
351 1 0.47 70.00 4.0840 8.2430 0 
352 1 0.47 70.00 15.6231 11.3561 0 
353 1 0.48 70.00 24.6333 14.4106 0 
354 1 0.49 70.00 21.7870 3.6707 0 
355 1 0.53 70.00 7.3541 7.3628 0 
356 1 0.49 70.00 15.0895 4.8798 0 
357 1 0.47 70.00 12.4888 13.7858 0 
358 1 0.46 70.00 19.1269 13.3562 0 
359 1 0.47 70.00 24.9032 0.8373 0 
360 1 0.44 70.00 10.5376 5.8785 0 
361 1 0.52 70.00 6.0563 3.0042 0 
362 1 0.46 70.00 11.3303 0.8509 0 
363 1 0.46 70.00 6.0306 4.8205 0 
364 1 0.44 70.00 6.9149 8.7770 0 
365 1 0.48 70.00 24.6344 1.7890 0 
366 1 0.49 70.00 3.5110 0.7441 0 
367 1 0.49 70.00 2.3671 8.1215 0 
368 1 0.48 70.00 17.6597 5.9479 0 
369 1 0.47 70.00 18.4544 11.9494 0 
370 1 0.50 70.00 27.4471 1.4433 0 
371 1 0.45 70.00 25.4309 3.0129 0 
372 1 0.47 70.00 13.9191 9.3464 0 
373 1 0.45 70.00 4.8590 0.6718 0 
374 1 0.46 70.00 22.4550 3.9751 0 
375 1 0.46 70.00 4.3408 8.7066 0 
376 1 0.49 70.00 25.1532 3.6640 0 
377 1 0.47 70.00 12.3380 7.0923 0 
378 1 0.47 70.00 0.9128 8.4838 0 
379 1 0.50 70.00 1.0154 14.0329 0 
380 1 0.50 70.00 23.2926 5.2533 0 
381 1 0.50 70.00 24.7751 12.4884 0 
382 1 0.49 70.00 1.2542 0.5500 0 
383 1 0.50 70.00 4.1671 6.2399 0 
384 1 0.47 70.00 15.1744 8.5725 0 
385 1 0.49 70.00 7.6630 2.0314 0 
386 1 0.47 70.00 3.6033 11.1100 0 
387 1 0.44 70.00 8.3170 3.1447 0 
388 1 0.41 70.00 11.9782 12.0339 0 
389 1 0.41 70.00 22.3618 11.5192 0 
390 1 0.48 70.00 1.6356 3.5329 0 
391 1 0.48 70.00 20.5325 2.6203 0 
392 1 0.43 70.00 19.9687 14.0157 0 
393 1 0.42 70.00 23.8451 11.1297 0 
394 1 0.43 70.00 7.3149 2.0382 0 
395 1 0.50 70.00 21.7567 6.6583 0 
396 1 0.47 70.00 3.6364 2.4274 0 
397 1 0.44 70.00 23.1832 10.4662 0 
398 1 0.47 70.00 1.3709 7.6857 0 
399 1 0.49 70.00 13.3686 7.7203 0 
400 1 0.46 70.00 10.1188 4.2634 0 
401 1 0.48 70.00 12.8739 4.7371 0 
402 1 0.46 70.00 1.9473 13.3761 0 
403 1 0.52 70.00 20.7251 3.1079 0 
404 1 0.45 70.00 13.9635 10.2970 0 
405 1 0.51 70.00 19.6887 6.4198 0 
406 1 0.48 70.00 27.3598 6.6560 0 
407 1 0.46 70.00 1.0096 7.3426 0 
408 1 0.47 70.00 23.1534 5.4467 0 
409 1 0.47 70.00 10.9896 3.3292 0 
410 1 0.50 70.00 26.7534 2.1686 0 
411 1 0.46 70.00 0.9132 11.4466 0 
412 1 0.47 70.00 24.7509 11.1170 0 
413 1 0.53 70.00 26.6243 5.6449 0 
414 1 0.49 70.00 6.7070 12.5903 0 
415 1 0.46 70.00 8.4792 11.8504 0 
416 1 0.51 70.00 10.7369 12.9859 0 
417 1 0.53 70.00 22.8353 13.6154 0 
418 1 0.47 70.00 20.5595 8.8210 0 
419 1 0.43 70.00 3.8315 6.8531 0 
420 1 0.49 70.00 24.4042 4.0842 0 
421 1 0.42 70.00 4.7795 6.2365 0 
422 1 0.45 70.00 16.1794 14.5997 0 
423 1 0.50 70.00 22.9473 10.1258 0 
424 1 0.46 70.00 7.4138 10.0496 0 
425 1 0.46 70.00 24.6204 8.8335 0 
426 1 0.49 70.00 9.1285 12.6256 0 
427 1 0.50 70.00 13.6538 3.1670 0 
428 1 0.45 70.00 19.1261 5.4621 0 
429 1 0.48 70.00 25.8565 10.2526 0 
430 1 0.48 70.00 20.1558 5.1802 0 
431 1 0.49 70.00 6.1656 5.0004 0 
432 1 0.50 70.00 12.5249 10.1293 0 
433 1 0.44 70.00 24.4402 10.7502 0 
434 1 0.49 70.00 22.8620 8.5116 0 
435 1 0.44 70.00 2.2475 9.5835 0 
436 1 0.46 70.00 8.1612 12.2445 0 
437 1 0.47 70.00 21.3970 1.2337 0 
438 1 0.43 70.00 6.4731 14.3188 0 
439 1 0.51 70.00 26.9338 14.2267 0 
440 1 0.45 70.00 2.9210 5.0766 0 
441 1 0.46 70.00 26.0116 8.1257 0 
442 1 0.47 70.00 21.3094 10.9668 0 
443 1 0.47 70.00 13.8539 4.6025 0 
444 1 0.52 70.00 22.2526 0.6660 0 
445 1 0.42 70.00 18.2434 2.4971 0 
446 1 0.42 70.00 26.0291 14.2896 0 
447 1 0.48 70.00 16.9800 2.3901 0 
448 1 0.47 70.00 23.5138 10.3758 0 
449 1 0.44 70.00 3.2168 12.9029 0 
450 1 0.47 70.00 5.4242 9.0918 0 
451 1 0.46 70.00 19.7442 4.0350 0 
452 1 0.45 70.00 7.8284 5.4230 0 
453 1 0.49 70.00 5.0566 3.6067 0 
454 1 0.49 70.00 17.5093 2.8809 0 
455 1 0.44 70.00 7.3329 12.5028 0 
456 1 0.47 70.00 12.2131 11.2823 0 
457 1 0.48 70.00 14.1572 13.6673 0 
458 1 0.46 70.00 14.3132 2.8611 0 
459 1 0.52 70.00 12.5032 4.7923 0 
460 1 0.42 70.00 18.9916 12.9996 0 
461 1 0.48 70.00 7.8557 3.4765 0 
462 1 0.44 70.00 25.2371 5.3615 0 
463 1 0.43 70.00 4.2111 11.5256 0 
464 1 0.43 70.00 11.4376 10.6186 0 
465 1 0.43 70.00 3.6595 7.8942 0 
466 1 0.48 70.00 20.2002 1.7887 0 
467 1 0.52 70.00 6.1282 1.7405 0 
468 1 0.43 70.00 7.6641 1.1235 0 
469 1 0.46 70.00 2.2951 14.3851 0 
470 1 0.50 70.00 6.7086 3.6791 0 
471 1 0.53 70.00 15.4216 3.8716 0 
472 1 0.47 70.00 7.2032 9.3129 0 
473 1 0.46 70.00 5.3728 14.6228 0 
474 1 0.42 70.00 2.6339 10.7471 0 
475 1 0.44 70.00 12.9310 7.3882 0 
476 1 0.46 70.00 4.9431 7.0637 0 
477 1 0.41 70.00 27.1267 5.1077 0 
478 1 0.43 70.00 14.6241 4.1169 0 
479 1 0.48 70.00 22.3599 13.3997 0 
480 1 0.45 70.00 5.3847 5.9946 0 
481 1 0.47 70.00 7.9179 9.6261 0 
482 1 0.48 70.00 25.1354 10.3773 0 
483 1 0.45 70.00 6.7032 14.2470 0 
484 1 0.49 70.00 10.7633 12.3517 0 
485 1 0.48 70.00 3.1574 13.1498 0 
486 1 0.46 70.00 24.3734 8.2823 0 
487 1 0.51 70.00 24.3980 5.6845 0 
488 1 0.50 70.00 3.8252 14.3973 0 
489 1 0.44 70.00 10.4538 1.6073 0 
490 1 0.44 70.00 8.9540 3.1977 0 
491 1 0.53 70.00 12.3047 0.8060 0 
492 1 0.49 70.00 15.5156 5.4264 0 
493 1 0.50 70.00 26.7576 7.6630 0 
494 1 0.40 70.00 7.5363 5.4246 0 
495 1 0.44 70.00 14.8961 10.6626 0 
496 1 0.48 70.00 19.0884 1.9550 0 
497 1 0.49 70.00 3.9425 10.9580 0 
498 1 0.45 70.00 20.1737 7.3557 0 
499 1 0.47 70.00 0.7438 10.0482 0 
500 1 0.45 70.00 8.0980 12.6832 0 
501 1 0.49 70.00 0.7887 12.7618 0 
502 1 0.49 70.00 16.4535 12.8986 0 
503 1 0.47 70.00 6.4299 12.2300 0 
504 1 0.51 70.00 20.6796 10.6640 0 
505 1 0.44 70.00 8.1005 8.7676 0 
506 1 0.43 70.00 10.2344 9.7423 0 
507 1 0.48 70.00 25.7812 9.1495 0 
508 1 0.48 70.00 11.2503 4.5060 0 
509 1 0.51 70.00 3.3905 3.0650 0 
510 1 0.46 70.00 14.8683 4.2420 0 
511 1 0.51 70.00 11.8263 4.5710 0 
512 1 0.48 70.00 25.3946 8.8131 0 
513 1 0.47 70.00 6.9752 3.7789 0 
514 1 0.47 70.00 2.5888 10.9528 0 
515 1 0.46 70.00 24.2376 10.3232 0 
516 1 0.44 70.00 6.9431 14.7978 0 
517 1 0.48 70.00 18.1978 8.3970 0 
518 1 0.47 70.00 1.5342 13.2152 0 
519 1 0.45 70.00 10.0781 9.3821 0 
520 1 0.51 70.00 14.4834 3.4420 0 
521 1 0.49 70.00 20.9526 0.5793 0 
522 1 0.44 70.00 7.1743 4.3484 0 
523 1 0.46 70.00 25.2494 0.5981 0 
524 1 0.40 70.00 10.8748 5.3761 0 
525 1 0.51 70.00 22.8420 4.8338 0 
526 1 0.50 70.00 14.1668 11.8626 0 
527 1 0.43 70.00 27.6709 3.1920 0 
528 1 0.52 70.00 6.4445 6.2535 0 
529 1 0.51 70.00 5.9040 0.6676 0 
530 1 0.53 70.00 16.4395 9.8211 0 
531 1 0.46 70.00 7.6477 5.8816 0 
532 1 0.47 70.00 9.5655 12.1069 0 
533 1 0.48 70.00 12.5872 14.2380 0 
534 1 0.49 70.00 20.2132 11.7633 0 
535 1 0.48 70.00 26.0669 13.5800 0 
536 1 0.48 70.00 2.6402 1.1796 0 
537 1 0.48 70.00 5.7124 4.1739 0 
538 1 0.54 70.00 8.9300 0.6034 0 
539 1 0.46 70.00 7.4214 6.3992 0 
540 1 0.44 70.00 17.0435 10.9564 0 
541 1 0.50 70.00 15.7850 5.5023 0 
542 1 0.47 70.00 1.0863 8.7477 0 
543 1 0.48 70.00 9.7073 14.0445 0 
544 1 0.47 70.00 16.6117 5.4201 0 
545 1 0.47 70.00 0.5109 14.5384 0 
546 1 0.49 70.00 12.2811 8.1959 0 
547 1 0.46 70.00 17.6152 2.6280 0 
548 1 0.47 70.00 0.5794 7.5422 0 
549 1 0.47 70.00 11.4092 9.3450 0 
550 1 0.47 70.00 2.2081 13.6884 0 
551 1 0.49 70.00 8.1348 6.3850 0 
552 1 0.42 70.00 1.3379 11.1273 0 
553 1 0.41 70.00 17.8660 8.4091 0 
554 1 0.45 70.00 25.9615 0.5375 0 
555 1 0.40 70.00 3.2616 10.2094 0 
556 1 0.52 70.00 0.7973 3.2651 0 
557 1 0.45 70.00 15.8043 14.6110 0 
558 1 0.52 70.00 14.9329 7.8573 0 
559 1 0.46 70.00 0.6788 3.5346 0 
560 1 0.46 70.00 9.7777 5.4242 0 
561 1 0.49 70.00 19.0922 4.7289 0 
562 1 0.46 70.00 9.4942 9.5760 0 
563 1 0.49 70.00 7.5632 7.1946 0 
564 1 0.44 70.00 9.5044 3.2454 0 
565 1 0.46 70.00 18.0523 12.6470 0 
566 1 0.48 70.00 16.0137 6.2737 0 
567 1 0.53 70.00 22.6091 11.8515 0 
568 1 0.45 70.00 18.6621 10.3367 0 
569 1 0.49 70.00 21.8539 13.4156 0 
570 1 0.45 70.00 1.1349 8.4619 0 
571 1 0.43 70.00 26.6663 4.6820 0 
572 1 0.53 70.00 25.5666 1.2246 0 
573 1 0.46 70.00 19.2683 9.3202 0 
574 1 0.46 70.00 16.8898 1.6673 0 
575 1 0.48 70.00 13.5147 11.8771 0 
576 1 0.48 70.00 22.0015 4.2919 0 
577 1 0.52 70.00 8.9706 3.5872 0 
578 1 0.38 70.00 11.2953 11.2941 0 
579 1 0.44 70.00 21.1566 6.6116 0 
580 1 0.48 70.00 12.0280 1.5306 0 
581 1 0.45 70.00 13.1469 14.6710 0 
582 1 0.44 70.00 1.7568 0.9528 0 
583 1 0.47 70.00 25.1404 9.7749 0 
584 1 0.46 70.00 17.7792 7.5974 0 
585 1 0.50 70.00 15.3890 9.3116 0 
586 1 0.49 70.00 7.9190 4.8510 0 
587 1 0.46 70.00 16.4234 4.8012 0 
588 1 0.48 70.00 1.0145 0.9672 0 
589 1 0.45 70.00 26.3622 7.4423 0 
590 1 0.39 70.00 15.0507 14.5106 0 
591 1 0.43 70.00 6.6534 2.9023 0 
592 1 0.43 70.00 27.2426 9.7387 0 
593 1 0.49 70.00 9.7983 11.1969 0 
594 1 0.48 70.00 2.6017 3.3727 0 
595 1 0.50 70.00 0.9426 4.5464 0 
596 1 0.50 70.00 15.4598 4.5593 0 
597 1 0.42 70.00 5.6412 10.9676 0 
598 1 0.47 70.00 14.7585 8.7872 0 
599 1 0.47 70.00 16.6345 3.7758 0 
600 1 0.51 70.00 26.1394 11.1372 0 
601 1 0.47 70.00 3.0266 8.8548 0 
602 1 0.52 70.00 21.3025 11.3591 0 
603 1 0.51 70.00 2.3029 1.2627 0 
604 1 0.55 70.00 3.8637 13.4975 0 
605 1 0.45 70.00 3.4075 4.6917 0 
606 1 0.50 70.00 15.5581 8.4584 0 
607 1 0.45 70.00 26.9398 8.4403 0 
608 1 0.49 70.00 7.8971 1.9962 0 
609 1 0.48 70.00 8.3059 2.9009 0 
610 1 0.46 70.00 19.6497 14.3619 0 
611 1 0.50 70.00 4.2399 11.0049 0 
612 1 0.44 70.00 22.4203 7.6503 0 
613 1 0.50 70.00 14.6697 11.7898 0 
614 1 0.51 70.00 8.8328 5.0615 0 
615 1 0.47 70.00 22.3496 13.8653 0 
616 1 0.46 70.00 16.5326 14.1411 0 
617 1 0.50 70.00 13.4886 13.8900 0 
618 1 0.49 70.00 1.1342 11.2268 0 
619 1 0.44 70.00 4.0827 9.0319 0 
620 1 0.51 70.00 27.3759 9.9005 0 
621 1 0.47 70.00 18.9699 1.0635 0 
622 1 0.52 70.00 13.5805 7.9654 0 
623 1 0.48 70.00 11.8672 13.8201 0 
624 1 0.49 70.00 26.1282 6.4656 0 
625 1 0.44 70.00 9.1666 13.8549 0 
626 1 0.46 70.00 18.1583 4.7816 0 
627 1 0.45 70.00 4.7849 8.7458 0 
628 1 0.47 70.00 26.3544 7.1584 0 
629 1 0.46 70.00 7.0786 10.6469 0 
630 1 0.45 70.00 8.7901 4.0778 0 
631 1 0.44 70.00 8.3040 7.3979 0 
632 1 0.48 70.00 10.7513 10.8920 0 
633 1 0.41 70.00 10.9483 0.7770 0 
634 1 0.52 70.00 10.8204 14.1918 0 
635 1 0.43 70.00 4.0179 10.0781 0 
636 1 0.45 70.00 6.4799 11.0545 0 
637 1 0.49 70.00 6.1697 3.2106 0 
638 1 0.50 70.00 1.0386 10.8473 0 
639 1 0.46 70.00 25.9224 5.0733 0 
640 1 0.51 70.00 15.0447 1.9377 0 
641 1 0.46 70.00 4.2001 4.3295 0 
642 1 0.56 70.00 26.5657 8.6946 0 
643 1 0.48 70.00 20.6674 9.3451 0 
644 1 0.46 70.00 23.9586 13.6036 0 
645 1 0.46 70.00 17.4661 10.3858 0 
646 1 0.47 70.00 17.2643 12.3244 0 
647 1 0.48 70.00 12.3470 12.8461 0 
648 1 0.50 70.00 15.2530 6.3677 0 
649 1 0.46 70.00 14.3345 3.7069 0 
650 1 0.47 70.00 26.7256 9.4630 0 
651 1 0.48 70.00 7.6343 6.9649 0 
652 1 0.47 70.00 15.0825 1.5293 0 
653 1 0.47 70.00 12.8863 4.3005 0 
654 1 0.48 70.00 20.2307 8.2071 0 
655 1 0.43 70.00 25.1426 11.0976 0 
656 1 0.45 70.00 26.2929 2.9056 0 
657 1 0.50 70.00 20.7215 8.3561 0 
658 1 0.49 70.00 22.6047 11.2010 0 
659 1 0.46 70.00 5.9154 5.5507 0 
660 1 0.43 70.00 13.8953 11.5762 0 
661 1 0.51 70.00 21.2997 2.3912 0 
662 1 0.49 70.00 18.6622 5.0793 0 
663 1 0.43 70.00 12.2881 2.7600 0 
664 1 0.45 70.00 8.6654 13.0694 0 
665 1 0.50 70.00 24.2062 10.9828 0 
666 1 0.44 70.00 6.4472 1.0027 0 
667 1 0.47 70.00 12.7214 2.0902 0 
668 1 0.47 70.00 25.6672 10.4407 0 
669 1 0.42 70.00 20.1911 12.3008 0 
670 1 0.39 70.00 2.8728 12.5100 0 
671 1 0.42 70.00 7.6075 4.0192 0 
672 1 0.51 70.00 7.8224 14.5804 0 
673 1 0.45 70.00 26.4507 12.2835 0 
674 1 0.50 70.00 9.4860 3.4459 0 
675 1 0.48 70.00 17.2373 4.5703 0 
676 1 0.46 70.00 23.6485 13.1255 0 
677 1 0.47 70.00 24.2330 0.8782 0 
678 1 0.46 70.00 27.0956 4.2335 0 
679 1 0.44 70.00 2.8283 1.1087 0 
680 1 0.46 70.00 8.3964 8.6005 0 
681 1 0.47 70.00 4.1344 8.5666 0 
682 1 0.50 70.00 1.6980 2.5850 0 
683 1 0.44 70.00 4.0504 9.8517 0 
684 1 0.47 70.00 20.5784 2.0824 0 
685 1 0.50 70.00 5.5689 11.3412 0 
686 1 0.49 70.00 15.6548 4.7659 0 
687 1 0.44 70.00 2.2920 7.3175 0 
688 1 0.46 70.00 13.4558 2.7224 0 
689 1 0.47 70.00 11.5432 10.0678 0 
690 1 0.43 70.00 19.5198 1.3860 0 
691 1 0.39 70.00 0.5986 0.7306 0 
692 1 0.49 70.00 0.7195 13.0594 0 
693 1 0.45 70.00 22.7954 1.2655 0 
694 1 0.43 70.00 21.6842 4.4952 0 
695 1 0.43 70.00 11.2883 7.4314 0 
696 1 0.47 70.00 13.9195 13.3435 0 
697 1 0.48 70.00 6.2495 2.0313 0 
698 1 0.50 70.00 17.2076 8.8512 0 
699 1 0.50 70.00 22.6995 13.9926 0 
700 1 0.55 70.00 1.7524 5.9349 0 
701 1 0.47 70.00 9.8624 11.7058 0 
702 1 0.48 70.00 19.4351 13.6230 0 
703 1 0.45 70.00 13.1568 12.6813 0 
704 1 0.47 70.00 11.4495 2.3544 0 
705 1 0.43 70.00 13.7068 11.2754 0 
706 1 0.44 70.00 10.8644 7.1572 0 
707 1 0.45 70.00 12.2006 6.8861 0 
708 1 0.53 70.00 11.9478 12.8635 0 
709 1 0.48 70.00 4.2295 6.0264 0 
710 1 0.42 70.00 17.6908 2.0852 0 
711 1 0.46 70.00 10.8625 12.5852 0 
712 1 0.47 70.00 20.3118 14.6637 0 
713 1 0.49 70.00 18.6625 2.4573 0 
714 1 0.42 70.00 23.5639 4.8323 0 
715 1 0.45 70.00 25.6868 14.3127 0 
716 1 0.47 70.00 24.0895 8.3754 0 
717 1 0.44 70.00 17.4296 10.9545 0 
718 1 0.47 70.00 2.7217 2.3162 0 
719 1 0.47 70.00 6.8790 14.3548 0 
720 1 0.49 70.00 8.3878 11.1606 0 
721 1 0.43 70.00 8.6783 12.5004 0 
722 1 0.45 70.00 19.5313 14.0119 0 
723 1 0.48 70.00 0.7165 4.1384 0 
724 1 0.47 70.00 11.7959 3.0703 0 
725 1 0.45 70.00 2.4377 2.7261 0 
726 1 0.47 70.00 20.8593 7.8522 0 
727 1 0.45 70.00 1.8047 8.6711 0 
728 1 0.46 70.00 23.0704 6.3559 0 
729 1 0.49 70.00 16.9729 12.9287 0 
730 1 0.46 70.00 2.9617 14.1589 0 
731 1 0.44 70.00 5.0716 0.5189 0 
732 1 0.49 70.00 14.7646 0.9445 0 
733 1 0.45 70.00 19.0061 9.2527 0 
734 1 0.42 70.00 25.8599 12.0021 0 
735 1 0.54 70.00 8.1775 14.4475 0 
736 1 0.48 70.00 13.6057 11.6741 0 
737 1 0.49 70.00 11.8207 5.5574 0 
738 1 0.48 70.00 3.0983 8.5038 0 
739 1 0.49 70.00 18.3888 13.8324 0 
740 1 0.49 70.00 1.2294 13.4552 0 
741 1 0.43 70.00 24.1171 11.4385 0 
742 1 0.51 70.00 22.0638 5.0391 0 
743 1 0.52 70.00 4.9657 1.5669 0 
744 1 0.44 70.00 20.1406 11.2674 0 
745 1 0.45 70.00 27.3177 13.0841 0 
746 1 0.43 70.00 24.6181 3.1887 0 
747 1 0.48 70.00 27.5974 7.9601 0 
748 1 0.49 70.00 18.8222 1.6461 0 
749 1 0.46 70.00 10.8884 2.7403 0 
750 1 0.49 70.00 12.2031 13.7850 0 
751 1 0.46 70.00 11.3989 9.9108 0 
752 1 0.55 70.00 6.2457 1.1554 0 
753 1 0.48 70.00 24.0389 0.8203 0 
754 1 0.41 70.00 14.6718 5.8288 0 
755 1 0.49 70.00 7.9340 1.2453 0 
756 1 0.48 70.00 23.7661 4.1499 0 
757 1 0.43 70.00 21.4480 13.4731 0 
758 1 0.49 70.00 5.8730 12.4807 0 
759 1 0.45 70.00 22.8656 9.4115 0 
760 1 0.45 70.00 27.1747 1.2126 0 
761 1 0.43 70.00 17.5393 0.6657 0 
762 1 0.44 70.00 26.1439 2.0238 0 
763 1 0.49 70.00 21.4247 5.3999 0 
764 1 0.49 70.00 2.9498 3.1362 0 
765 1 0.49 70.00 22.5569 12.6724 0 
766 1 0.51 70.00 17.0673 9.0493 0 
767 1 0.48 70.00 1.6829 11.5450 0 
768 1 0.45 70.00 15.0302 12.4596 0 
769 1 0.44 70.00 15.5769 8.8114 0 
770 1 0.45 70.00 8.0264 14.6400 0 
771 1 0.51 70.00 20.2545 14.3400 0 
772 1 0.46 70.00 14.1869 14.5408 0 
773 1 0.48 70.00 15.1893 10.4773 0 
774 1 0.42 70.00 11.6573 2.0631 0 
775 1 0.51 70.00 25.1236 6.7158 0 
776 1 0.39 70.00 21.8452 0.9296 0 
777 1 0.48 70.00 10.9546 10.5405 0 
778 1 0.51 70.00 25.1425 6.9709 0 
779 1 0.49 70.00 6.4816 10.5440 0 
780 1 0.47 70.00 21.4169 10.1278 0 
781 1 0.46 70.00 19.7968 13.4655 0 
782 1 0.44 70.00 5.8794 6.4485 0 
783 1 0.45 70.00 20.4075 5.1426 0 
784 1 0.48 70.00 17.7974 6.6888 0 
785 1 0.48 70.00 25.8290 4.0466 0 
786 1 0.47 70.00 14.0613 12.1266 0 
787 1 0.42 70.00 27.5010 10.6378 0 
788 1 0.48 70.00 18.8586 4.3439 0 
789 1 0.52 70.00 9.2156 1.7585 0 
790 1 0.47 70.00 19.4723 4.9029 0 
791 1 0.46 70.00 25.1956 12.9313 0 
792 1 0.51 70.00 21.1665 9.7184 0 
793 1 0.49 70.00 27.7823 13.0091 0 
794 1 0.43 70.00 12.7556 13.3134 0 
795 1 0.52 70.00 19.0763 4.0992 0 
796 1 0.47 70.00 22.4341 5.7667 0 
797 1 0.45 70.00 13.5686 12.6137 0 
798 1 0.48 70.00 5.7796 14.5208 0 
799 1 0.46 70.00 2.1158 9.0431 0 
800 1 0.50 70.00 7.1688 9.8891 0 
801 1 0.46 70.00 15.8774 2.2848 0 
802 1 0.50 70.00 2.0736 11.9136 0 
803 1 0.51 70.00 6.7791 7.6340 0 
804 1 0.49 70.00 18.6998 14.0651 0 
805 1 0.46 70.00 8.1182 9.5485 0 
806 1 0.45 70.00 9.6767 3.9706 0 
807 1 0.46 70.00 5.8574 5.2150 0 
808 1 0.48 70.00 20.0861 13.8203 0 
809 1 0.49 70.00 14.2607 11.6548 0 
810 1 0.47 70.00 8.3931 12.1926 0 
811 1 0.50 70.00 26.2388 10.0472 0 
812 1 0.50 70.00 16.7925 1.3642 0 
813 1 0.47 70.00 4.9062 2.7373 0 
814 1 0.47 70.00 6.9666 11.6085 0 
815 1 0.46 70.00 26.7215 10.2097 0 
816 1 0.49 70.00 26.7840 2.4930 0 
817 1 0.44 70.00 3.4384 8.5817 0 
818 1 0.44 70.00 27.7604 0.9787 0 
819 1 0.45 70.00 16.5249 6.7705 0 
820 1 0.45 70.00 10.1765 4.6740 0 
821 1 0.41 70.00 2.9169 6.7554 0 
822 1 0.51 70.00 10.7845 6.5476 0 
823 1 0.48 70.00 5.8575 8.9559 0 
824 1 0.48 70.00 8.8476 14.4800 0 
825 1 0.44 70.00 0.7700 1.9753 0 
826 1 0.41 70.00 7.9320 11.8362 0 
827 1 0.51 70.00 17.4589 7.5062 0 
828 1 0.51 70.00 10.0417 12.7570 0 
829 1 0.47 70.00 13.3657 8.2850 0 
830 1 0.47 70.00 24.9773 8.3606 0 
831 1 0.49 70.00 8.1271 9.2367 0 
832 1 0.48 70.00 13.1016 13.7836 0 
833 1 0.48 70.00 25.2680 1.3046 0 
834 1 0.49 70.00 15.0877 10.9515 0 
835 1 0.42 70.00 4.8345 10.4805 0 
836 1 0.48 70.00 9.9425 1.4302 0 
837 1 0.47 70.00 15.3160 13.7196 0 
838 1 0.47 70.00 23.3889 7.9206 0 
839 1 0.43 70.00 10.7620 1.4406 0 
840 1 0.45 70.00 1.5196 7.3207 0 
841 1 0.49 70.00 21.5448 3.0079 0 
842 1 0.45 70.00 3.8139 9.2967 0 
843 1 0.44 70.00 3.4246 7.7077 0 
844 1 0.45 70.00 10.5663 11.3726 0 
845 1 0.44 70.00 16.0877 7.2500 0 
846 1 0.45 70.00 13.8863 2.9382 0 
847 1 0.49 70.00 15.2487 6.6802 0 
848 1 0.46 70.00 8.0057 5.0800 0 
849 1 0.46 70.00 15.8077 11.8340 0 
850 1 0.52 70.00 21.2910 4.9972 0 
851 1 0.46 70.00 12.7792 3.9640 0 
852 1 0.45 70.00 21.2995 7.6913 0 
853 1 0.54 70.00 24.8063 9.0645 0 
854 1 0.46 70.00 1.5437 10.2152 0 
855 1 0.52 70.00 11.1372 10.2198 0 
856 1 0.53 70.00 7.4896 13.9589 0 
857 1 0.54 70.00 17.4101 8.1575 0 