# LAMMPS data file for rigid bodies

3360 atoms

2 atom types

0.0 	 28.0 	 xlo xhi 
0.0 	 15.0 	 ylo yhi 
-1.0 	 1.0 	 zlo zhi 

Atoms

1 1 0.44 70.00 7.0827 1.0716 0 
2 1 0.48 70.00 16.3126 14.0816 0 
3 1 0.41 70.00 19.3597 3.7929 0 
4 1 0.52 70.00 12.6098 3.6148 0 
5 1 0.47 70.00 24.7097 12.1541 0 
6 1 0.47 70.00 3.6618 6.0710 0 
7 1 0.49 70.00 2.2326 9.7075 0 
8 1 0.48 70.00 11.3703 7.1604 0 
9 1 0.45 70.00 15.5068 9.4931 0 
10 1 0.49 70.00 0.8726 1.2655 0 
11 1 0.47 70.00 24.0139 5.9923 0 
12 1 0.48 70.00 2.9974 4.6226 0 
13 1 0.41 70.00 17.5746 11.0363 0 
14 1 0.47 70.00 21.2477 9.4521 0 
15 1 0.44 70.00 0.7861 4.0177 0 
16 1 0.50 70.00 13.7020 11.6478 0 
17 1 0.47 70.00 21.2419 10.2120 0 
18 1 0.53 70.00 6.9967 2.7186 0 
19 1 0.48 70.00 1.6662 1.7163 0 
20 1 0.52 70.00 13.4992 5.0795 0 
21 1 0.44 70.00 9.4579 4.6168 0 
22 1 0.48 70.00 5.1477 6.0150 0 
23 1 0.47 70.00 5.7460 2.1783 0 
24 1 0.46 70.00 15.1758 4.4040 0 
25 1 0.49 70.00 20.9536 14.5280 0 
26 1 0.45 70.00 3.1205 13.8930 0 
27 1 0.48 70.00 17.2258 0.7050 0 
28 1 0.50 70.00 2.9196 14.7872 0 
29 1 0.47 70.00 6.8161 8.9374 0 
30 1 0.48 70.00 10.9890 1.5144 0 
31 1 0.51 70.00 2.7539 13.1872 0 
32 1 0.47 70.00 2.6166 11.6267 0 
33 1 0.49 70.00 3.1777 13.2465 0 
34 1 0.46 70.00 13.1568 8.5949 0 
35 1 0.49 70.00 27.1734 3.5177 0 
36 1 0.45 70.00 15.0257 4.7784 0 
37 1 0.42 70.00 22.4723 7.6427 0 
38 1 0.45 70.00 10.8895 9.8934 0 
39 1 0.45 70.00 22.4301 13.3837 0 
40 1 0.46 70.00 8.0524 2.0573 0 
41 1 0.48 70.00 12.2285 3.8960 0 
42 1 0.49 70.00 26.6389 14.3198 0 
43 1 0.47 70.00 4.8541 13.5398 0 
44 1 0.51 70.00 23.4483 4.0796 0 
45 1 0.44 70.00 8.0315 4.4777 0 
46 1 0.44 70.00 10.6042 11.4446 0 
47 1 0.48 70.00 3.8363 1.5506 0 
48 1 0.44 70.00 7.0653 9.7352 0 
49 1 0.45 70.00 13.3211 7.1113 0 
50 1 0.43 70.00 15.4434 12.2619 0 
51 1 0.47 70.00 27.5530 8.5201 0 
52 1 0.44 70.00 26.4412 11.6621 0 
53 1 0.49 70.00 11.1833 6.5245 0 
54 1 0.48 70.00 15.4321 4.1849 0 
55 1 0.54 70.00 1.8729 3.4953 0 
56 1 0.47 70.00 24.3393 8.6430 0 
57 1 0.44 70.00 13.4337 1.8589 0 
58 1 0.42 70.00 5.9442 11.4192 0 
59 1 0.46 70.00 21.6311 10.1395 0 
60 1 0.45 70.00 1.1028 10.3779 0 
61 1 0.50 70.00 5.3711 0.8676 0 
62 1 0.46 70.00 15.5539 8.7515 0 
63 1 0.46 70.00 1.9189 14.3471 0 
64 1 0.46 70.00 24.2434 5.2632 0 
65 1 0.49 70.00 7.7128 14.5878 0 
66 1 0.45 70.00 11.9404 11.7646 0 
67 1 0.43 70.00 4.6646 14.3942 0 
68 1 0.42 70.00 7.9563 12.5111 0 
69 1 0.44 70.00 3.3396 3.2749 0 
70 1 0.49 70.00 14.0789 5.8008 0 
71 1 0.52 70.00 7.7453 0.6687 0 
72 1 0.43 70.00 25.2815 6.8530 0 
73 1 0.49 70.00 9.7519 0.5606 0 
74 1 0.45 70.00 13.9306 8.0733 0 
75 1 0.48 70.00 8.5329 1.5231 0 
76 1 0.47 70.00 26.8538 11.1863 0 
77 1 0.42 70.00 24.6821 8.6093 0 
78 1 0.46 70.00 20.5302 6.4320 0 
79 1 0.50 70.00 1.6845 3.9234 0 
80 1 0.48 70.00 7.2989 2.4300 0 
81 1 0.48 70.00 21.4978 0.5099 0 
82 1 0.45 70.00 7.9962 3.3749 0 
83 1 0.43 70.00 3.5528 3.0427 0 
84 1 0.44 70.00 22.5976 0.8057 0 
85 1 0.46 70.00 12.5797 10.1806 0 
86 1 0.47 70.00 5.0643 1.9248 0 
87 1 0.51 70.00 23.6360 11.8828 0 
88 1 0.46 70.00 6.8452 10.1831 0 
89 1 0.46 70.00 14.3988 3.0805 0 
90 1 0.46 70.00 2.6436 2.1345 0 
91 1 0.48 70.00 13.4719 10.4096 0 
92 1 0.43 70.00 12.7236 1.4746 0 
93 1 0.45 70.00 12.8820 7.6869 0 
94 1 0.48 70.00 7.7222 9.4364 0 
95 1 0.39 70.00 21.0990 6.3140 0 
96 1 0.47 70.00 11.7604 6.6002 0 
97 1 0.48 70.00 27.0677 14.3484 0 
98 1 0.43 70.00 6.1822 12.0447 0 
99 1 0.50 70.00 26.7050 2.6489 0 
100 1 0.45 70.00 7.8577 10.8817 0 
101 1 0.50 70.00 17.6360 4.4800 0 
102 1 0.50 70.00 5.1641 0.7901 0 
103 1 0.43 70.00 3.6211 4.2658 0 
104 1 0.48 70.00 1.9934 3.9148 0 
105 1 0.52 70.00 17.9951 6.8647 0 
106 1 0.52 70.00 26.4576 14.1600 0 
107 1 0.48 70.00 1.2177 7.3145 0 
108 1 0.49 70.00 2.6269 1.5614 0 
109 1 0.45 70.00 19.1982 6.7198 0 
110 1 0.49 70.00 22.8773 12.3524 0 
111 1 0.47 70.00 13.3399 3.6258 0 
112 1 0.48 70.00 24.3815 3.2757 0 
113 1 0.47 70.00 26.6381 3.9401 0 
114 1 0.48 70.00 16.9577 11.6003 0 
115 1 0.44 70.00 16.9578 5.7604 0 
116 1 0.44 70.00 4.2415 13.0304 0 
117 1 0.49 70.00 12.0930 8.5699 0 
118 1 0.44 70.00 15.2148 10.8744 0 
119 1 0.48 70.00 10.5177 13.0685 0 
120 1 0.46 70.00 20.0061 14.5650 0 
121 1 0.44 70.00 22.0003 6.2429 0 
122 1 0.48 70.00 4.9582 8.9378 0 
123 1 0.48 70.00 26.4101 13.3407 0 
124 1 0.48 70.00 26.0342 10.2931 0 
125 1 0.49 70.00 11.1317 7.6818 0 
126 1 0.49 70.00 6.5361 1.9593 0 
127 1 0.49 70.00 9.6610 3.6147 0 
128 1 0.49 70.00 19.1381 1.9290 0 
129 1 0.43 70.00 5.1328 9.9637 0 
130 1 0.50 70.00 14.2326 4.9460 0 
131 1 0.47 70.00 24.6939 13.3522 0 
132 1 0.52 70.00 15.5280 2.2421 0 
133 1 0.48 70.00 4.1493 2.4870 0 
134 1 0.49 70.00 12.2949 4.0849 0 
135 1 0.42 70.00 9.0797 8.7301 0 
136 1 0.49 70.00 15.1235 3.8080 0 
137 1 0.45 70.00 4.2437 7.0591 0 
138 1 0.47 70.00 23.0168 10.0884 0 
139 1 0.46 70.00 1.2515 3.2813 0 
140 1 0.45 70.00 22.0399 10.1562 0 
141 1 0.51 70.00 3.7156 14.7551 0 
142 1 0.42 70.00 21.3322 11.8883 0 
143 1 0.48 70.00 22.7463 5.6981 0 
144 1 0.53 70.00 4.1274 9.6330 0 
145 1 0.47 70.00 25.5055 10.3351 0 
146 1 0.45 70.00 20.5062 14.4734 0 
147 1 0.45 70.00 16.3052 1.3680 0 
148 1 0.45 70.00 8.6927 2.8240 0 
149 1 0.48 70.00 12.0196 1.2988 0 
150 1 0.43 70.00 19.7255 12.3607 0 
151 1 0.51 70.00 11.4964 8.8970 0 
152 1 0.46 70.00 6.7427 10.3995 0 
153 1 0.49 70.00 13.7685 3.4650 0 
154 1 0.46 70.00 3.6998 3.6878 0 
155 1 0.49 70.00 18.4948 13.2842 0 
156 1 0.47 70.00 5.2326 13.3724 0 
157 1 0.43 70.00 2.8509 6.2785 0 
158 1 0.50 70.00 21.8855 2.7664 0 
159 1 0.45 70.00 12.4520 7.8408 0 
160 1 0.46 70.00 25.4327 0.5308 0 
161 1 0.47 70.00 9.5991 7.1549 0 
162 1 0.48 70.00 19.7155 14.6009 0 
163 1 0.50 70.00 12.1743 6.2284 0 
164 1 0.47 70.00 16.8571 7.2120 0 
165 1 0.50 70.00 25.4650 2.4503 0 
166 1 0.45 70.00 23.0779 3.7020 0 
167 1 0.53 70.00 22.4566 13.8788 0 
168 1 0.44 70.00 16.0540 4.5982 0 
169 1 0.46 70.00 4.3539 1.7143 0 
170 1 0.46 70.00 3.6236 2.2277 0 
171 1 0.49 70.00 7.0132 2.2453 0 
172 1 0.44 70.00 4.4874 9.9280 0 
173 1 0.50 70.00 11.9080 4.1173 0 
174 1 0.46 70.00 3.5409 5.0411 0 
175 1 0.43 70.00 18.8441 6.0193 0 
176 1 0.50 70.00 13.3007 4.5530 0 
177 1 0.48 70.00 22.7372 4.7733 0 
178 1 0.50 70.00 22.6927 14.1458 0 
179 1 0.47 70.00 3.4637 9.9164 0 
180 1 0.45 70.00 22.7339 5.3841 0 
181 1 0.48 70.00 25.5847 10.9758 0 
182 1 0.50 70.00 16.3494 3.9172 0 
183 1 0.44 70.00 12.5150 9.2974 0 
184 1 0.45 70.00 26.6926 10.8434 0 
185 1 0.48 70.00 24.1499 11.7042 0 
186 1 0.44 70.00 22.9520 4.2944 0 
187 1 0.47 70.00 6.1742 1.4274 0 
188 1 0.47 70.00 6.8573 5.5489 0 
189 1 0.49 70.00 16.4455 3.3948 0 
190 1 0.49 70.00 17.4590 7.8216 0 
191 1 0.49 70.00 7.8648 14.0731 0 
192 1 0.45 70.00 1.9437 10.9301 0 
193 1 0.40 70.00 8.7138 8.7879 0 
194 1 0.44 70.00 23.1120 10.4372 0 
195 1 0.45 70.00 1.4420 0.6100 0 
196 1 0.47 70.00 13.0643 11.7855 0 
197 1 0.42 70.00 2.1038 5.9469 0 
198 1 0.47 70.00 1.5898 8.8633 0 
199 1 0.49 70.00 14.7382 7.7761 0 
200 1 0.43 70.00 14.0598 3.3912 0 
201 1 0.49 70.00 2.2403 3.8487 0 
202 1 0.43 70.00 27.6816 6.8883 0 
203 1 0.45 70.00 27.0454 5.2047 0 
204 1 0.47 70.00 5.4760 14.0146 0 
205 1 0.49 70.00 17.7929 9.4936 0 
206 1 0.41 70.00 25.1975 4.2994 0 
207 1 0.46 70.00 26.3907 1.2078 0 
208 1 0.49 70.00 1.6675 6.6216 0 
209 1 0.45 70.00 22.7763 6.4229 0 
210 1 0.48 70.00 20.9517 2.6784 0 
211 1 0.47 70.00 15.3812 6.2457 0 
212 1 0.42 70.00 13.2281 11.2360 0 
213 1 0.48 70.00 20.0950 14.0938 0 
214 1 0.48 70.00 27.2621 10.8157 0 
215 1 0.44 70.00 23.4365 12.1163 0 
216 1 0.50 70.00 17.0045 8.1516 0 
217 1 0.46 70.00 19.1504 10.2314 0 
218 1 0.49 70.00 20.2744 1.5493 0 
219 1 0.50 70.00 14.0030 8.2860 0 
220 1 0.45 70.00 9.9409 8.3784 0 
221 1 0.47 70.00 24.5859 12.9779 0 
222 1 0.55 70.00 2.1607 8.4056 0 
223 1 0.48 70.00 1.9968 11.2675 0 
224 1 0.49 70.00 2.3534 12.7392 0 
225 1 0.48 70.00 5.6633 6.5790 0 
226 1 0.49 70.00 8.9512 0.6793 0 
227 1 0.49 70.00 7.4246 3.7977 0 
228 1 0.47 70.00 25.3336 7.7290 0 
229 1 0.47 70.00 8.8858 9.4931 0 
230 1 0.45 70.00 2.3788 9.0201 0 
231 1 0.41 70.00 27.3968 12.6094 0 
232 1 0.46 70.00 10.2204 10.7078 0 
233 1 0.46 70.00 22.5424 7.8511 0 
234 1 0.41 70.00 3.1464 4.0705 0 
235 1 0.45 70.00 17.3281 2.3605 0 
236 1 0.42 70.00 4.8882 4.6829 0 
237 1 0.51 70.00 0.6583 9.7653 0 
238 1 0.47 70.00 13.7416 7.7099 0 
239 1 0.45 70.00 18.8194 9.7928 0 
240 1 0.50 70.00 0.7189 10.4522 0 
241 1 0.47 70.00 14.1528 8.5995 0 
242 1 0.44 70.00 17.1174 9.9455 0 
243 1 0.52 70.00 21.6691 7.8986 0 
244 1 0.44 70.00 15.2580 1.3687 0 
245 1 0.48 70.00 11.1174 14.0719 0 
246 1 0.46 70.00 27.4038 4.3055 0 
247 1 0.48 70.00 11.7467 1.5870 0 
248 1 0.48 70.00 23.4432 10.8398 0 
249 1 0.47 70.00 5.4793 4.8409 0 
250 1 0.52 70.00 23.0967 8.8244 0 
251 1 0.47 70.00 12.3527 1.0709 0 
252 1 0.44 70.00 12.9947 5.6947 0 
253 1 0.45 70.00 1.7842 11.5594 0 
254 1 0.44 70.00 5.6633 1.5166 0 
255 1 0.45 70.00 15.2298 9.5984 0 
256 1 0.47 70.00 3.3458 13.5906 0 
257 1 0.44 70.00 20.9521 7.5094 0 
258 1 0.47 70.00 16.3887 10.5105 0 
259 1 0.39 70.00 9.6404 2.9273 0 
260 1 0.51 70.00 1.7873 9.2054 0 
261 1 0.44 70.00 27.7177 12.3437 0 
262 1 0.51 70.00 1.1325 12.4911 0 
263 1 0.48 70.00 7.4110 1.6844 0 
264 1 0.47 70.00 13.8418 12.2172 0 
265 1 0.48 70.00 24.2861 8.4198 0 
266 1 0.48 70.00 15.6209 1.9530 0 
267 1 0.49 70.00 17.6563 9.1580 0 
268 1 0.47 70.00 14.2183 11.4262 0 
269 1 0.48 70.00 14.3328 3.6871 0 
270 1 0.47 70.00 10.5610 11.7503 0 
271 1 0.49 70.00 25.1606 3.5429 0 
272 1 0.50 70.00 5.7574 12.3307 0 
273 1 0.52 70.00 9.9425 4.5334 0 
274 1 0.47 70.00 19.7233 10.6655 0 
275 1 0.42 70.00 12.7553 4.3389 0 
276 1 0.45 70.00 11.3640 6.8601 0 
277 1 0.47 70.00 4.8432 5.0347 0 
278 1 0.54 70.00 20.7588 7.1221 0 
279 1 0.47 70.00 13.8161 8.5375 0 
280 1 0.53 70.00 24.1234 13.7699 0 
281 1 0.46 70.00 8.5055 6.8472 0 
282 1 0.47 70.00 22.2460 7.0507 0 
283 1 0.45 70.00 20.0675 10.8581 0 
284 1 0.49 70.00 3.5350 1.2835 0 
285 1 0.46 70.00 3.2960 5.9921 0 
286 1 0.45 70.00 17.0546 7.4442 0 
287 1 0.45 70.00 8.6663 10.2427 0 
288 1 0.46 70.00 18.2075 8.6511 0 
289 1 0.49 70.00 7.4214 9.5560 0 
290 1 0.48 70.00 6.9401 11.3205 0 
291 1 0.51 70.00 11.3715 8.6930 0 
292 1 0.44 70.00 25.6255 7.6762 0 
293 1 0.44 70.00 5.6657 4.6712 0 
294 1 0.47 70.00 19.4304 12.7955 0 
295 1 0.52 70.00 3.5609 7.6384 0 
296 1 0.46 70.00 18.9707 1.6005 0 
297 1 0.52 70.00 16.5582 5.6561 0 
298 1 0.49 70.00 8.1080 1.6763 0 
299 1 0.44 70.00 13.7869 4.6888 0 
300 1 0.47 70.00 23.6765 4.0914 0 
301 1 0.48 70.00 24.3783 3.6707 0 
302 1 0.46 70.00 8.1757 1.1288 0 
303 1 0.47 70.00 1.6178 14.3932 0 
304 1 0.47 70.00 24.9329 2.1557 0 
305 1 0.51 70.00 12.3627 10.3911 0 
306 1 0.48 70.00 4.3739 3.9225 0 
307 1 0.48 70.00 1.6308 2.8470 0 
308 1 0.48 70.00 22.6727 13.6589 0 
309 1 0.47 70.00 16.4074 2.0670 0 
310 1 0.48 70.00 17.2238 11.1263 0 
311 1 0.50 70.00 25.2982 9.4787 0 
312 1 0.46 70.00 22.2020 13.6584 0 
313 1 0.43 70.00 25.2024 2.3540 0 
314 1 0.48 70.00 17.2096 13.3084 0 
315 1 0.45 70.00 5.9386 12.7289 0 
316 1 0.47 70.00 15.5012 13.6466 0 
317 1 0.52 70.00 6.0498 7.6524 0 
318 1 0.49 70.00 25.2011 11.8282 0 
319 1 0.47 70.00 15.0843 14.1870 0 
320 1 0.48 70.00 8.7027 14.0942 0 
321 1 0.44 70.00 4.7777 3.9405 0 
322 1 0.45 70.00 5.0368 9.5812 0 
323 1 0.43 70.00 20.5993 2.3494 0 
324 1 0.45 70.00 21.1530 6.6922 0 
325 1 0.49 70.00 1.8100 10.5523 0 
326 1 0.51 70.00 2.3331 6.5784 0 
327 1 0.46 70.00 24.4055 9.2338 0 
328 1 0.47 70.00 14.9587 13.0522 0 
329 1 0.47 70.00 18.4331 2.5908 0 
330 1 0.50 70.00 18.2529 13.4199 0 
331 1 0.47 70.00 2.2210 14.3371 0 
332 1 0.50 70.00 13.9283 12.5034 0 
333 1 0.47 70.00 6.7252 1.3335 0 
334 1 0.46 70.00 21.2638 11.3113 0 
335 1 0.48 70.00 9.4559 12.3599 0 
336 1 0.46 70.00 12.8452 13.7868 0 
337 1 0.45 70.00 27.5479 5.6754 0 
338 1 0.50 70.00 21.8732 13.2603 0 
339 1 0.41 70.00 15.8064 4.8758 0 
340 1 0.51 70.00 19.6001 7.1774 0 
341 1 0.51 70.00 12.1842 10.7857 0 
342 1 0.45 70.00 12.1303 4.4887 0 
343 1 0.42 70.00 16.6911 5.2327 0 
344 1 0.45 70.00 27.5752 12.7546 0 
345 1 0.50 70.00 6.7326 13.9159 0 
346 1 0.50 70.00 27.2234 6.7414 0 
347 1 0.50 70.00 5.9607 5.3838 0 
348 1 0.49 70.00 20.5545 13.6749 0 
349 1 0.46 70.00 0.9257 8.0901 0 
350 1 0.45 70.00 5.7622 0.8211 0 
351 1 0.49 70.00 12.8887 4.6208 0 
352 1 0.48 70.00 2.6606 12.7046 0 
353 1 0.46 70.00 14.6959 9.7831 0 
354 1 0.44 70.00 9.4040 1.5459 0 
355 1 0.49 70.00 20.2655 13.5248 0 
356 1 0.51 70.00 13.2449 12.9554 0 
357 1 0.40 70.00 27.5805 8.9825 0 
358 1 0.48 70.00 11.7264 12.4003 0 
359 1 0.46 70.00 1.7717 9.7279 0 
360 1 0.47 70.00 15.5653 5.1438 0 
361 1 0.49 70.00 26.0463 2.3104 0 
362 1 0.44 70.00 19.8612 6.8371 0 
363 1 0.41 70.00 22.7164 3.7194 0 
364 1 0.49 70.00 17.2160 5.1143 0 
365 1 0.46 70.00 23.8811 4.2823 0 
366 1 0.47 70.00 12.7536 0.6462 0 
367 1 0.47 70.00 7.3540 12.5245 0 
368 1 0.46 70.00 9.0844 3.6999 0 
369 1 0.46 70.00 26.9299 4.8294 0 
370 1 0.48 70.00 20.9360 6.1631 0 
371 1 0.52 70.00 4.0169 13.4097 0 
372 1 0.47 70.00 19.6782 5.9879 0 
373 1 0.46 70.00 8.5175 7.2745 0 
374 1 0.48 70.00 27.5873 13.3649 0 
375 1 0.49 70.00 23.9600 11.0412 0 
376 1 0.50 70.00 21.3480 6.3049 0 
377 1 0.51 70.00 14.7175 14.7875 0 
378 1 0.40 70.00 23.3019 7.6556 0 
379 1 0.46 70.00 11.2445 11.1921 0 
380 1 0.48 70.00 6.6787 8.3396 0 
381 1 0.46 70.00 7.5902 1.0580 0 
382 1 0.49 70.00 6.6115 4.0742 0 
383 1 0.49 70.00 26.5648 11.9644 0 
384 1 0.47 70.00 4.8979 8.4911 0 
385 1 0.49 70.00 27.0324 12.2391 0 
386 1 0.44 70.00 13.6933 2.2659 0 
387 1 0.47 70.00 19.6906 11.7158 0 
388 1 0.48 70.00 11.4266 6.1798 0 
389 1 0.43 70.00 14.7094 11.3066 0 
390 1 0.48 70.00 2.9595 9.7417 0 
391 1 0.43 70.00 21.8037 13.7644 0 
392 1 0.46 70.00 21.0683 5.3572 0 
393 1 0.49 70.00 0.5847 1.6469 0 
394 1 0.49 70.00 24.6426 10.5501 0 
395 1 0.49 70.00 7.1159 14.2635 0 
396 1 0.44 70.00 9.5339 3.3682 0 
397 1 0.48 70.00 9.9415 13.4100 0 
398 1 0.48 70.00 1.1141 6.6681 0 
399 1 0.47 70.00 11.1818 5.6763 0 
400 1 0.53 70.00 25.9321 8.6446 0 
401 1 0.46 70.00 11.8040 9.2680 0 
402 1 0.49 70.00 2.6799 13.8654 0 
403 1 0.48 70.00 23.7637 6.7023 0 
404 1 0.45 70.00 6.2781 13.7251 0 
405 1 0.48 70.00 2.3462 8.5165 0 
406 1 0.42 70.00 15.8744 6.0000 0 
407 1 0.51 70.00 14.4328 0.9037 0 
408 1 0.47 70.00 1.1110 8.6603 0 
409 1 0.54 70.00 6.5164 4.5146 0 
410 1 0.44 70.00 9.2904 11.5838 0 
411 1 0.44 70.00 21.7433 11.6304 0 
412 1 0.48 70.00 14.1971 13.8032 0 
413 1 0.49 70.00 16.5464 9.1069 0 
414 1 0.44 70.00 15.6076 13.1303 0 
415 1 0.51 70.00 19.4250 13.1536 0 
416 1 0.46 70.00 22.3442 9.2303 0 
417 1 0.40 70.00 26.7619 5.0334 0 
418 1 0.49 70.00 9.7995 8.1657 0 
419 1 0.47 70.00 4.9515 13.3565 0 
420 1 0.47 70.00 6.9964 7.5160 0 
421 1 0.47 70.00 27.0135 12.0108 0 
422 1 0.45 70.00 19.8976 14.3649 0 
423 1 0.43 70.00 7.0939 9.4926 0 
424 1 0.49 70.00 26.4640 3.4134 0 
425 1 0.53 70.00 25.6891 3.9378 0 
426 1 0.48 70.00 11.7283 13.1898 0 
427 1 0.44 70.00 21.9428 2.4193 0 
428 1 0.48 70.00 18.3062 4.1929 0 
429 1 0.47 70.00 24.9631 8.6611 0 
430 1 0.49 70.00 11.7641 5.3542 0 
431 1 0.40 70.00 10.3194 11.6513 0 
432 1 0.44 70.00 6.1404 8.9420 0 
433 1 0.54 70.00 17.2938 4.9240 0 
434 1 0.42 70.00 12.5086 8.5347 0 
435 1 0.45 70.00 19.2284 5.4517 0 
436 1 0.49 70.00 22.3567 2.2101 0 
437 1 0.47 70.00 19.5869 10.4879 0 
438 1 0.42 70.00 26.1423 4.5099 0 
439 1 0.47 70.00 2.6209 8.0284 0 
440 1 0.47 70.00 20.0998 12.2419 0 
441 1 0.44 70.00 15.9952 2.5896 0 
442 1 0.48 70.00 18.4763 1.4450 0 
443 1 0.49 70.00 0.8625 7.4135 0 
444 1 0.42 70.00 17.5515 14.6627 0 
445 1 0.47 70.00 12.7875 8.6272 0 
446 1 0.49 70.00 17.8634 5.7354 0 
447 1 0.45 70.00 18.0837 0.9592 0 
448 1 0.49 70.00 4.1651 4.5300 0 
449 1 0.45 70.00 27.0487 5.9754 0 
450 1 0.50 70.00 20.9426 13.5911 0 
451 1 0.44 70.00 5.3512 6.1826 0 
452 1 0.47 70.00 26.2065 3.9047 0 
453 1 0.47 70.00 4.5461 11.0259 0 
454 1 0.46 70.00 3.5607 1.0037 0 
455 1 0.45 70.00 0.5982 3.0183 0 
456 1 0.45 70.00 6.7087 0.7750 0 
457 1 0.42 70.00 1.6188 1.0144 0 
458 1 0.46 70.00 2.9363 1.0228 0 
459 1 0.44 70.00 14.4365 12.4860 0 
460 1 0.45 70.00 22.1726 7.7726 0 
461 1 0.47 70.00 9.0727 1.4340 0 
462 1 0.45 70.00 23.2902 2.1298 0 
463 1 0.42 70.00 13.5952 14.4911 0 
464 1 0.56 70.00 4.7832 13.8766 0 
465 1 0.48 70.00 20.7166 6.8205 0 
466 1 0.48 70.00 18.7356 2.9832 0 
467 1 0.44 70.00 27.3716 1.4074 0 
468 1 0.52 70.00 4.8685 6.1235 0 
469 1 0.46 70.00 14.7072 5.0933 0 
470 1 0.44 70.00 12.8291 12.1212 0 
471 1 0.49 70.00 16.2215 9.5700 0 
472 1 0.47 70.00 18.7633 9.3144 0 
473 1 0.54 70.00 27.6990 12.0905 0 
474 1 0.47 70.00 13.9196 6.5693 0 
475 1 0.50 70.00 4.3653 5.9914 0 
476 1 0.48 70.00 13.6749 4.3238 0 
477 1 0.46 70.00 25.3773 10.8184 0 
478 1 0.41 70.00 10.1993 6.8618 0 
479 1 0.51 70.00 13.5508 8.4512 0 
480 1 0.46 70.00 4.1361 6.6687 0 
481 1 0.46 70.00 2.4557 4.6925 0 
482 1 0.48 70.00 2.2898 3.5157 0 
483 1 0.50 70.00 18.8361 7.4724 0 
484 1 0.46 70.00 13.1359 13.7218 0 
485 1 0.45 70.00 27.7367 3.5806 0 
486 1 0.53 70.00 14.5151 7.6940 0 
487 1 0.46 70.00 18.8243 5.0112 0 
488 1 0.46 70.00 11.1256 1.1074 0 
489 1 0.47 70.00 3.4232 2.7246 0 
490 1 0.48 70.00 4.4804 4.8520 0 
491 1 0.40 70.00 5.3230 9.6808 0 
492 1 0.55 70.00 8.5150 12.5312 0 
493 1 0.53 70.00 3.9110 7.6725 0 
494 1 0.48 70.00 14.8320 4.4598 0 
495 1 0.44 70.00 5.9496 8.0407 0 
496 1 0.46 70.00 22.2749 9.9143 0 
497 1 0.50 70.00 8.8325 4.8682 0 
498 1 0.48 70.00 8.1981 12.2946 0 
499 1 0.48 70.00 5.0034 11.2683 0 
500 1 0.44 70.00 9.3166 11.7974 0 
501 1 0.49 70.00 20.0050 0.8526 0 
502 1 0.45 70.00 5.8786 5.9909 0 
503 1 0.49 70.00 7.6036 4.3665 0 
504 1 0.45 70.00 5.6734 13.0158 0 
505 1 0.50 70.00 27.0004 4.3161 0 
506 1 0.45 70.00 8.0287 7.3706 0 
507 1 0.49 70.00 2.8356 4.3364 0 
508 1 0.47 70.00 6.6854 2.8465 0 
509 1 0.47 70.00 16.0256 3.5062 0 
510 1 0.47 70.00 12.2446 13.0145 0 
511 1 0.43 70.00 22.2162 4.3290 0 
512 1 0.48 70.00 14.6178 14.2393 0 
513 1 0.48 70.00 17.0389 2.5067 0 
514 1 0.46 70.00 16.2487 8.2295 0 
515 1 0.50 70.00 24.1399 5.4771 0 
516 1 0.47 70.00 11.1926 2.5958 0 
517 1 0.46 70.00 20.1315 6.0226 0 
518 1 0.43 70.00 13.7407 5.7813 0 
519 1 0.46 70.00 27.7506 6.4650 0 
520 1 0.49 70.00 23.6682 9.3067 0 
521 1 0.45 70.00 12.4025 7.5692 0 
522 1 0.48 70.00 7.6953 7.7338 0 
523 1 0.50 70.00 10.3729 10.3197 0 
524 1 0.46 70.00 17.2043 8.5382 0 
525 1 0.42 70.00 23.5246 11.4723 0 
526 1 0.44 70.00 13.2857 5.5093 0 
527 1 0.51 70.00 3.5899 2.5121 0 
528 1 0.47 70.00 24.4838 4.5323 0 
529 1 0.48 70.00 9.7954 11.8415 0 
530 1 0.49 70.00 14.7227 2.0470 0 
531 1 0.49 70.00 6.1979 13.9851 0 
532 1 0.46 70.00 10.5522 8.0799 0 
533 1 0.47 70.00 7.8321 11.6995 0 
534 1 0.53 70.00 25.9646 11.5524 0 
535 1 0.54 70.00 15.0088 9.1760 0 
536 1 0.41 70.00 27.4525 2.7374 0 
537 1 0.47 70.00 3.8278 9.4014 0 
538 1 0.44 70.00 19.3831 5.9542 0 
539 1 0.43 70.00 1.0881 6.1229 0 
540 1 0.46 70.00 17.2245 12.8085 0 
541 1 0.47 70.00 23.2894 4.3388 0 
542 1 0.45 70.00 4.7047 10.4669 0 
543 1 0.43 70.00 19.2661 12.3196 0 
544 1 0.47 70.00 19.0275 5.3233 0 
545 1 0.49 70.00 1.6889 1.4531 0 
546 1 0.45 70.00 17.3276 14.3062 0 
547 1 0.49 70.00 4.5240 13.7023 0 
548 1 0.41 70.00 7.8409 12.9994 0 
549 1 0.48 70.00 12.0970 14.1756 0 
550 1 0.48 70.00 25.7000 13.2917 0 
551 1 0.40 70.00 27.4282 4.9696 0 
552 1 0.55 70.00 20.4986 7.4346 0 
553 1 0.44 70.00 19.2031 1.5718 0 
554 1 0.48 70.00 13.5549 4.8195 0 
555 1 0.53 70.00 14.5206 10.4796 0 
556 1 0.47 70.00 10.1741 13.6388 0 
557 1 0.48 70.00 3.4491 0.7670 0 
558 1 0.40 70.00 13.1285 10.4882 0 
559 1 0.45 70.00 16.6810 8.1547 0 
560 1 0.44 70.00 8.9497 4.0905 0 
561 1 0.48 70.00 6.0581 9.3743 0 
562 1 0.45 70.00 26.0016 3.5968 0 
563 1 0.52 70.00 15.9935 11.4965 0 
564 1 0.49 70.00 2.5733 1.0318 0 
565 1 0.46 70.00 8.5027 4.4780 0 
566 1 0.47 70.00 24.5731 5.0942 0 
567 1 0.44 70.00 9.9426 9.5532 0 
568 1 0.49 70.00 9.5419 6.1549 0 
569 1 0.42 70.00 7.6630 7.3110 0 
570 1 0.46 70.00 14.4136 12.8004 0 
571 1 0.44 70.00 10.1058 12.5137 0 
572 1 0.44 70.00 7.0678 8.9602 0 
573 1 0.48 70.00 10.5643 4.3576 0 
574 1 0.54 70.00 2.1926 10.6364 0 
575 1 0.51 70.00 22.2034 4.6220 0 
576 1 0.47 70.00 19.3904 4.2260 0 
577 1 0.51 70.00 20.9203 6.5450 0 
578 1 0.52 70.00 15.8434 10.7207 0 
579 1 0.47 70.00 19.8873 12.0260 0 
580 1 0.51 70.00 4.5690 1.8380 0 
581 1 0.47 70.00 10.5954 10.5931 0 
582 1 0.48 70.00 17.1523 4.1361 0 
583 1 0.52 70.00 20.0843 11.7553 0 
584 1 0.50 70.00 5.3808 8.8164 0 
585 1 0.48 70.00 13.7516 6.1360 0 
586 1 0.44 70.00 1.4495 3.7943 0 
587 1 0.48 70.00 10.5859 3.1681 0 
588 1 0.43 70.00 8.8876 0.9812 0 
589 1 0.46 70.00 15.8753 5.7947 0 
590 1 0.44 70.00 21.1339 13.1655 0 
591 1 0.45 70.00 9.5319 14.5859 0 
592 1 0.48 70.00 27.6435 14.3775 0 
593 1 0.46 70.00 25.3233 7.1422 0 
594 1 0.48 70.00 18.7927 2.5300 0 
595 1 0.48 70.00 16.6973 10.0806 0 
596 1 0.44 70.00 19.2926 7.4382 0 
597 1 0.41 70.00 16.2936 5.9764 0 
598 1 0.44 70.00 4.4650 12.3841 0 
599 1 0.43 70.00 26.3536 6.1653 0 
600 1 0.48 70.00 19.8563 13.2487 0 
601 1 0.51 70.00 9.7123 5.0691 0 
602 1 0.45 70.00 5.4937 8.4271 0 
603 1 0.47 70.00 25.1210 1.2603 0 
604 1 0.54 70.00 16.1606 0.5113 0 
605 1 0.46 70.00 0.6302 1.2272 0 
606 1 0.51 70.00 22.8919 11.7762 0 
607 1 0.48 70.00 24.9850 2.3893 0 
608 1 0.50 70.00 24.3809 12.0236 0 
609 1 0.42 70.00 6.3831 6.8013 0 
610 1 0.50 70.00 15.6422 12.0144 0 
611 1 0.51 70.00 12.3151 1.7942 0 
612 1 0.50 70.00 8.7841 9.2845 0 
613 1 0.45 70.00 24.1515 1.6919 0 
614 1 0.50 70.00 1.0347 9.6616 0 
615 1 0.52 70.00 17.6199 9.6039 0 
616 1 0.51 70.00 21.9023 5.7390 0 
617 1 0.53 70.00 14.7659 6.8211 0 
618 1 0.43 70.00 9.9630 10.1429 0 
619 1 0.51 70.00 14.8338 2.6496 0 
620 1 0.47 70.00 8.0706 10.9811 0 
621 1 0.46 70.00 23.0611 3.2004 0 
622 1 0.45 70.00 7.0346 6.4641 0 
623 1 0.48 70.00 18.6694 12.3549 0 
624 1 0.45 70.00 0.5493 14.3800 0 
625 1 0.44 70.00 3.6330 7.8445 0 
626 1 0.46 70.00 9.1158 7.7223 0 
627 1 0.50 70.00 18.6826 3.3986 0 
628 1 0.48 70.00 23.0079 7.5505 0 
629 1 0.45 70.00 27.3152 11.0540 0 
630 1 0.49 70.00 20.1804 6.6154 0 
631 1 0.52 70.00 4.1691 5.9493 0 
632 1 0.42 70.00 25.9605 1.1929 0 
633 1 0.48 70.00 13.3847 14.1514 0 
634 1 0.45 70.00 13.6906 1.6453 0 
635 1 0.48 70.00 14.4009 1.9352 0 
636 1 0.43 70.00 10.6032 14.2354 0 
637 1 0.47 70.00 17.5439 3.8352 0 
638 1 0.48 70.00 21.9230 4.4832 0 
639 1 0.53 70.00 17.8900 14.2637 0 
640 1 0.44 70.00 27.2672 8.7000 0 
641 1 0.43 70.00 16.7866 8.5852 0 
642 1 0.46 70.00 21.4533 4.0828 0 
643 1 0.46 70.00 2.3669 12.0817 0 
644 1 0.48 70.00 2.9872 9.2581 0 
645 1 0.45 70.00 16.2827 8.7265 0 
646 1 0.45 70.00 7.7757 13.4755 0 
647 1 0.46 70.00 27.0683 11.4777 0 
648 1 0.48 70.00 10.7767 0.7875 0 
649 1 0.46 70.00 15.8346 13.7781 0 
650 1 0.49 70.00 12.5739 2.4169 0 
651 1 0.46 70.00 23.2699 5.5572 0 
652 1 0.48 70.00 22.5476 12.5965 0 
653 1 0.44 70.00 26.3071 13.7375 0 
654 1 0.44 70.00 20.6788 11.4196 0 
655 1 0.49 70.00 1.4472 1.4985 0 
656 1 0.48 70.00 19.1335 6.2002 0 
657 1 0.49 70.00 13.4902 4.1222 0 
658 1 0.46 70.00 2.0716 1.8829 0 
659 1 0.47 70.00 22.5785 8.5750 0 
660 1 0.51 70.00 10.4134 5.5408 0 
661 1 0.49 70.00 27.6641 4.0565 0 
662 1 0.46 70.00 5.6756 2.7950 0 
663 1 0.48 70.00 14.4732 6.4310 0 
664 1 0.44 70.00 13.5796 2.8907 0 
665 1 0.46 70.00 15.8147 12.3852 0 
666 1 0.46 70.00 21.4616 1.1047 0 
667 1 0.49 70.00 18.6853 1.6581 0 
668 1 0.47 70.00 1.4304 8.7288 0 
669 1 0.45 70.00 13.8212 10.8152 0 
670 1 0.48 70.00 12.0409 4.7471 0 
671 1 0.49 70.00 19.3152 14.7409 0 
672 1 0.47 70.00 27.5630 8.0745 0 
673 1 0.45 70.00 26.3155 4.2789 0 
674 1 0.46 70.00 22.4700 10.9006 0 
675 1 0.46 70.00 7.8223 3.6192 0 
676 1 0.46 70.00 20.0891 8.4761 0 
677 1 0.46 70.00 9.3061 1.8031 0 
678 1 0.50 70.00 18.6859 5.2328 0 
679 1 0.48 70.00 16.4699 9.9381 0 
680 1 0.48 70.00 17.0966 6.0233 0 
681 1 0.45 70.00 20.8649 1.5527 0 
682 1 0.45 70.00 12.3499 7.1204 0 
683 1 0.49 70.00 25.8224 6.9585 0 
684 1 0.43 70.00 22.1459 6.6772 0 
685 1 0.54 70.00 6.0339 9.9438 0 
686 1 0.50 70.00 8.1771 11.4093 0 
687 1 0.44 70.00 25.9232 6.7118 0 
688 1 0.47 70.00 14.9810 5.6591 0 
689 1 0.46 70.00 11.7064 10.9406 0 
690 1 0.48 70.00 2.2093 5.1280 0 
691 1 0.48 70.00 15.6219 7.8798 0 
692 1 0.47 70.00 5.2950 1.2869 0 
693 1 0.44 70.00 9.7338 0.9020 0 
694 1 0.49 70.00 6.8974 12.1596 0 
695 1 0.51 70.00 7.5712 1.5392 0 
696 1 0.44 70.00 6.8871 7.9092 0 
697 1 0.48 70.00 23.7920 13.4845 0 
698 1 0.47 70.00 1.4537 6.3405 0 
699 1 0.43 70.00 18.3352 1.1975 0 
700 1 0.45 70.00 16.9542 0.5175 0 
701 1 0.42 70.00 24.9684 0.5061 0 
702 1 0.40 70.00 4.6434 4.4305 0 
703 1 0.47 70.00 15.0842 7.9620 0 
704 1 0.46 70.00 9.4460 2.1041 0 
705 1 0.48 70.00 19.4960 1.1532 0 
706 1 0.49 70.00 13.5147 6.5336 0 
707 1 0.46 70.00 1.2341 9.8301 0 
708 1 0.43 70.00 26.7213 1.9368 0 
709 1 0.42 70.00 18.7586 7.8307 0 
710 1 0.48 70.00 7.2694 11.5969 0 
711 1 0.47 70.00 25.4008 11.5515 0 
712 1 0.49 70.00 17.0360 12.9405 0 
713 1 0.50 70.00 15.5751 11.3671 0 
714 1 0.53 70.00 9.3033 14.1690 0 
715 1 0.44 70.00 15.0750 7.6768 0 
716 1 0.49 70.00 9.3276 2.3555 0 
717 1 0.51 70.00 8.7242 11.3281 0 
718 1 0.45 70.00 19.6599 14.0684 0 
719 1 0.50 70.00 21.6275 8.8960 0 
720 1 0.46 70.00 24.7794 6.0673 0 
721 1 0.46 70.00 18.5160 9.7710 0 
722 1 0.45 70.00 27.7356 9.6478 0 
723 1 0.45 70.00 21.1016 13.4294 0 
724 1 0.40 70.00 13.3511 2.4763 0 
725 1 0.47 70.00 15.9527 5.2491 0 
726 1 0.48 70.00 27.7969 4.9129 0 
727 1 0.46 70.00 1.3576 4.4970 0 
728 1 0.46 70.00 5.2086 10.9951 0 
729 1 0.48 70.00 23.1487 14.2833 0 
730 1 0.48 70.00 17.0803 1.4178 0 
731 1 0.48 70.00 3.8469 6.7702 0 
732 1 0.45 70.00 5.6539 11.3837 0 
733 1 0.49 70.00 2.7002 10.4764 0 
734 1 0.38 70.00 16.5334 11.2342 0 
735 1 0.48 70.00 26.1623 8.7522 0 
736 1 0.48 70.00 5.0849 9.2527 0 
737 1 0.47 70.00 17.7709 13.0441 0 
738 1 0.43 70.00 22.0819 12.8118 0 
739 1 0.43 70.00 13.7485 10.5831 0 
740 1 0.49 70.00 23.7521 5.4929 0 
741 1 0.46 70.00 11.4348 10.2724 0 
742 1 0.48 70.00 25.6372 2.8044 0 
743 1 0.46 70.00 8.4592 6.0232 0 
744 1 0.48 70.00 8.5804 9.2150 0 
745 1 0.47 70.00 26.5756 2.3303 0 
746 1 0.44 70.00 7.1143 4.5154 0 
747 1 0.43 70.00 5.3509 2.4283 0 
748 1 0.42 70.00 26.6296 12.3441 0 
749 1 0.46 70.00 15.8400 7.2296 0 
750 1 0.50 70.00 11.3887 13.6331 0 
751 1 0.49 70.00 9.3590 7.8478 0 
752 1 0.46 70.00 3.0140 9.9828 0 
753 1 0.45 70.00 10.7501 10.7237 0 
754 1 0.47 70.00 26.5067 10.6294 0 
755 1 0.44 70.00 20.6564 1.7465 0 
756 1 0.46 70.00 24.8094 5.4908 0 
757 1 0.52 70.00 26.4042 5.2654 0 
758 1 0.43 70.00 15.6263 7.2206 0 
759 1 0.50 70.00 15.6793 2.9918 0 
760 1 0.50 70.00 11.9391 6.0963 0 
761 1 0.49 70.00 15.8920 13.2561 0 
762 1 0.46 70.00 1.6863 7.6895 0 
763 1 0.45 70.00 6.7548 4.4083 0 
764 1 0.45 70.00 16.3919 7.4172 0 
765 1 0.47 70.00 7.8336 10.5007 0 
766 1 0.48 70.00 27.3301 9.8046 0 
767 1 0.45 70.00 23.4564 10.5121 0 
768 1 0.47 70.00 24.8458 13.8489 0 
769 1 0.49 70.00 8.5200 6.6111 0 
770 1 0.46 70.00 21.3443 3.5270 0 
771 1 0.45 70.00 15.7470 11.7856 0 
772 1 0.43 70.00 23.5565 13.1902 0 
773 1 0.47 70.00 3.5325 9.6408 0 
774 1 0.53 70.00 21.1383 2.2934 0 
775 1 0.45 70.00 26.9300 2.3553 0 
776 1 0.47 70.00 3.3009 7.0844 0 
777 1 0.49 70.00 5.2893 6.6018 0 
778 1 0.51 70.00 7.5572 2.8174 0 
779 1 0.43 70.00 12.7467 8.9972 0 
780 1 0.46 70.00 14.8167 2.8769 0 
781 1 0.42 70.00 20.1660 3.7386 0 
782 1 0.48 70.00 17.0394 10.2755 0 
783 1 0.43 70.00 23.1801 7.0308 0 
784 1 0.45 70.00 15.6565 11.5695 0 
785 1 0.43 70.00 7.0736 9.2578 0 
786 1 0.51 70.00 18.3945 6.2403 0 
787 1 0.51 70.00 26.4893 14.6913 0 
788 1 0.46 70.00 25.8001 2.5046 0 
789 1 0.49 70.00 15.3728 1.5435 0 
790 1 0.42 70.00 4.8186 12.8877 0 
791 1 0.46 70.00 16.2131 3.2578 0 
792 1 0.46 70.00 12.0051 6.3839 0 
793 1 0.44 70.00 19.2239 1.2136 0 
794 1 0.47 70.00 15.0866 1.1944 0 
795 1 0.51 70.00 15.0625 9.9790 0 
796 1 0.49 70.00 6.1541 1.1179 0 
797 1 0.47 70.00 15.8980 11.9346 0 
798 1 0.50 70.00 7.2714 4.1058 0 
799 1 0.47 70.00 12.5259 13.1831 0 
800 1 0.47 70.00 14.5336 4.6251 0 
801 1 0.49 70.00 17.4364 9.2725 0 
802 1 0.41 70.00 15.0775 3.5446 0 
803 1 0.44 70.00 7.3233 11.8109 0 
804 1 0.46 70.00 26.0437 3.1286 0 
805 1 0.48 70.00 25.6717 9.5462 0 
806 1 0.45 70.00 1.4988 7.5864 0 
807 1 0.50 70.00 20.2148 7.4744 0 
808 1 0.51 70.00 5.9817 7.1423 0 
809 1 0.47 70.00 19.8604 1.7842 0 
810 1 0.47 70.00 22.9664 11.0737 0 
811 1 0.43 70.00 10.1735 8.7455 0 
812 1 0.48 70.00 20.5794 12.4743 0 
813 1 0.50 70.00 15.8004 3.8198 0 
814 1 0.46 70.00 11.8796 3.4784 0 
815 1 0.49 70.00 23.3166 11.3763 0 
816 1 0.49 70.00 13.4340 10.9648 0 
817 1 0.50 70.00 24.9531 5.3292 0 
818 1 0.48 70.00 2.8660 1.8268 0 
819 1 0.44 70.00 1.4105 11.9330 0 
820 1 0.47 70.00 3.0381 5.9174 0 
821 1 0.42 70.00 13.2246 8.3763 0 
822 1 0.43 70.00 19.6607 8.2839 0 
823 1 0.45 70.00 8.5121 8.7305 0 
824 1 0.46 70.00 14.3015 8.3763 0 
825 1 0.46 70.00 17.7778 7.9811 0 
826 1 0.49 70.00 26.4987 8.6311 0 
827 1 0.46 70.00 17.8357 11.7996 0 
828 1 0.43 70.00 17.8169 11.2537 0 
829 1 0.47 70.00 19.2349 0.8354 0 
830 1 0.49 70.00 1.2095 9.3465 0 
831 1 0.47 70.00 13.7200 9.3402 0 
832 1 0.51 70.00 5.7758 12.0080 0 
833 1 0.37 70.00 1.8311 3.2426 0 
834 1 0.54 70.00 4.6393 5.3978 0 
835 1 0.51 70.00 4.0147 12.7938 0 
836 1 0.44 70.00 16.8142 2.7775 0 
837 1 0.52 70.00 2.8849 12.9112 0 
838 1 0.50 70.00 25.5366 14.3022 0 
839 1 0.46 70.00 14.7270 3.9721 0 
840 1 0.43 70.00 27.5713 2.5206 0 
841 1 0.49 70.00 14.3678 7.4271 0 
842 1 0.50 70.00 4.8073 7.1261 0 
843 1 0.47 70.00 2.3744 0.5266 0 
844 1 0.45 70.00 24.1164 12.9983 0 
845 1 0.52 70.00 11.3902 11.7331 0 
846 1 0.48 70.00 1.1301 11.4679 0 
847 1 0.47 70.00 14.3503 2.2466 0 
848 1 0.46 70.00 6.2879 9.3325 0 
849 1 0.45 70.00 13.2442 7.5055 0 
850 1 0.43 70.00 2.5906 5.3782 0 
851 1 0.47 70.00 27.0324 10.6740 0 
852 1 0.49 70.00 16.7619 14.6703 0 
853 1 0.49 70.00 26.8029 8.6182 0 
854 1 0.49 70.00 16.5293 1.7980 0 
855 1 0.52 70.00 11.3063 0.6988 0 
856 1 0.48 70.00 0.7547 11.1418 0 
857 1 0.44 70.00 12.1902 3.2086 0 