# LAMMPS data file for rigid bodies

1680 atoms

2 atom types

0.0 	 28.0 	 xlo xhi 
0.0 	 15.0 	 ylo yhi 
-1.0 	 1.0 	 zlo zhi 

Atoms

1 1 0.48 70.00 17.0767 8.4736 0 
2 1 0.46 70.00 22.2998 2.4795 0 
3 1 0.40 70.00 7.2835 1.2008 0 
4 1 0.42 70.00 17.1330 12.1335 0 
5 1 0.49 70.00 16.2686 3.6414 0 
6 1 0.51 70.00 15.4050 6.8379 0 
7 1 0.46 70.00 3.3858 4.2969 0 
8 1 0.52 70.00 2.9649 8.1735 0 
9 1 0.48 70.00 21.7111 3.9823 0 
10 1 0.48 70.00 26.4815 14.3064 0 
11 1 0.43 70.00 10.5648 14.7434 0 
12 1 0.47 70.00 5.2242 5.8484 0 
13 1 0.46 70.00 8.5175 11.2876 0 
14 1 0.44 70.00 5.6503 13.4763 0 
15 1 0.46 70.00 24.1615 6.3532 0 
16 1 0.49 70.00 17.2915 1.2844 0 
17 1 0.46 70.00 18.2906 7.6389 0 
18 1 0.45 70.00 23.4672 3.4127 0 
19 1 0.44 70.00 9.9572 2.3773 0 
20 1 0.45 70.00 3.1641 3.8288 0 
21 1 0.52 70.00 5.9404 2.1826 0 
22 1 0.48 70.00 4.8858 12.2749 0 
23 1 0.43 70.00 12.1353 12.1644 0 
24 1 0.47 70.00 0.8040 6.3423 0 
25 1 0.45 70.00 23.4726 5.1629 0 
26 1 0.48 70.00 14.8050 0.9205 0 
27 1 0.42 70.00 25.4382 8.1160 0 
28 1 0.45 70.00 10.8582 1.7696 0 
29 1 0.50 70.00 5.6571 10.9656 0 
30 1 0.48 70.00 0.8492 1.9391 0 
31 1 0.45 70.00 9.2689 8.9905 0 
32 1 0.51 70.00 13.3152 7.7669 0 
33 1 0.40 70.00 10.1156 8.2109 0 
34 1 0.42 70.00 1.4585 3.2620 0 
35 1 0.50 70.00 14.6910 12.3077 0 
36 1 0.48 70.00 24.7576 7.1250 0 
37 1 0.52 70.00 3.5631 9.0435 0 
38 1 0.51 70.00 5.8583 7.0561 0 
39 1 0.50 70.00 24.5938 12.5434 0 
40 1 0.49 70.00 1.1324 5.6050 0 
41 1 0.45 70.00 12.7866 10.3831 0 
42 1 0.45 70.00 7.7718 14.2263 0 
43 1 0.49 70.00 9.6382 1.4816 0 
44 1 0.48 70.00 19.9061 6.1565 0 
45 1 0.49 70.00 2.0677 3.7241 0 
46 1 0.48 70.00 17.1876 9.1549 0 
47 1 0.40 70.00 19.9103 12.8066 0 
48 1 0.39 70.00 10.0114 12.1212 0 
49 1 0.50 70.00 23.7068 1.4968 0 
50 1 0.43 70.00 17.9028 11.0702 0 
51 1 0.43 70.00 21.8033 6.4652 0 
52 1 0.47 70.00 2.6001 13.9168 0 
53 1 0.49 70.00 10.1525 12.3098 0 
54 1 0.51 70.00 4.8602 2.6664 0 
55 1 0.45 70.00 9.8382 13.3468 0 
56 1 0.44 70.00 16.8262 14.6040 0 
57 1 0.50 70.00 8.4456 11.0098 0 
58 1 0.53 70.00 18.7657 3.5152 0 
59 1 0.52 70.00 14.9851 3.0837 0 
60 1 0.49 70.00 23.3945 12.4392 0 
61 1 0.44 70.00 18.6997 10.9387 0 
62 1 0.44 70.00 3.8237 7.6240 0 
63 1 0.46 70.00 7.6903 2.3980 0 
64 1 0.44 70.00 17.7075 4.7290 0 
65 1 0.51 70.00 14.5369 6.6801 0 
66 1 0.46 70.00 2.0207 13.8598 0 
67 1 0.49 70.00 8.2855 4.0890 0 
68 1 0.45 70.00 5.1106 9.4232 0 
69 1 0.45 70.00 13.9991 14.4237 0 
70 1 0.43 70.00 11.5405 8.8652 0 
71 1 0.47 70.00 14.3489 3.8692 0 
72 1 0.50 70.00 17.8749 13.5484 0 
73 1 0.49 70.00 13.8273 14.7569 0 
74 1 0.43 70.00 27.7133 6.7406 0 
75 1 0.43 70.00 6.4459 3.6150 0 
76 1 0.47 70.00 27.2553 10.1166 0 
77 1 0.49 70.00 20.7795 0.6004 0 
78 1 0.48 70.00 12.5623 12.8084 0 
79 1 0.48 70.00 16.5441 7.6151 0 
80 1 0.48 70.00 5.3077 6.0730 0 
81 1 0.52 70.00 25.9715 7.0266 0 
82 1 0.46 70.00 23.7216 5.9179 0 
83 1 0.42 70.00 8.0986 10.2737 0 
84 1 0.49 70.00 15.6199 9.4268 0 
85 1 0.49 70.00 21.3321 12.5708 0 
86 1 0.48 70.00 16.2783 6.1039 0 
87 1 0.49 70.00 1.3153 10.9203 0 
88 1 0.53 70.00 16.3418 12.0978 0 
89 1 0.48 70.00 3.9074 10.0600 0 
90 1 0.45 70.00 6.9888 1.2953 0 
91 1 0.49 70.00 20.1828 2.8561 0 
92 1 0.43 70.00 14.7097 7.9499 0 
93 1 0.52 70.00 25.0207 4.4914 0 
94 1 0.47 70.00 10.7652 0.7609 0 
95 1 0.50 70.00 16.9071 3.2671 0 
96 1 0.51 70.00 4.5228 10.5030 0 
97 1 0.51 70.00 1.8312 14.0381 0 
98 1 0.51 70.00 24.6429 5.9031 0 
99 1 0.45 70.00 10.4941 8.4722 0 
100 1 0.44 70.00 0.5780 9.6328 0 
101 1 0.47 70.00 16.0248 9.0545 0 
102 1 0.45 70.00 18.6095 9.1108 0 
103 1 0.45 70.00 17.1656 5.6153 0 
104 1 0.49 70.00 7.8976 12.4147 0 
105 1 0.52 70.00 10.4738 2.4691 0 
106 1 0.45 70.00 24.0446 13.4482 0 
107 1 0.46 70.00 5.0698 14.2322 0 
108 1 0.44 70.00 16.8171 0.7076 0 
109 1 0.44 70.00 19.2797 6.4568 0 
110 1 0.50 70.00 27.3741 11.9258 0 
111 1 0.44 70.00 2.4145 5.4256 0 
112 1 0.47 70.00 25.1212 8.5614 0 
113 1 0.47 70.00 11.8020 13.4364 0 
114 1 0.47 70.00 4.1389 10.0342 0 
115 1 0.50 70.00 1.8621 1.4762 0 
116 1 0.41 70.00 8.1272 10.5945 0 
117 1 0.48 70.00 27.4297 13.8148 0 
118 1 0.49 70.00 4.8390 8.0163 0 
119 1 0.46 70.00 14.2919 6.1841 0 
120 1 0.49 70.00 24.2846 3.5207 0 
121 1 0.45 70.00 22.0356 3.2103 0 
122 1 0.49 70.00 8.2420 12.2209 0 
123 1 0.45 70.00 5.1637 10.8025 0 
124 1 0.44 70.00 4.9764 7.4548 0 
125 1 0.46 70.00 17.4123 8.2569 0 
126 1 0.46 70.00 9.6052 14.6594 0 
127 1 0.44 70.00 7.9760 5.0355 0 
128 1 0.48 70.00 9.9259 5.5645 0 
129 1 0.50 70.00 25.6349 3.8780 0 
130 1 0.47 70.00 7.8808 1.3757 0 
131 1 0.49 70.00 15.6482 1.7440 0 
132 1 0.45 70.00 11.5796 1.5707 0 
133 1 0.40 70.00 8.7632 10.0485 0 
134 1 0.46 70.00 17.6654 5.6255 0 
135 1 0.44 70.00 14.6891 12.0307 0 
136 1 0.47 70.00 14.1658 12.4443 0 
137 1 0.46 70.00 26.6158 6.6442 0 
138 1 0.49 70.00 1.5218 6.0542 0 
139 1 0.43 70.00 8.0353 6.8912 0 
140 1 0.46 70.00 6.9267 9.0647 0 
141 1 0.42 70.00 13.7490 12.0986 0 
142 1 0.50 70.00 2.2643 8.9703 0 
143 1 0.49 70.00 16.2094 14.7953 0 
144 1 0.49 70.00 26.1708 7.2533 0 
145 1 0.49 70.00 16.8393 14.3869 0 
146 1 0.47 70.00 14.0342 6.5510 0 
147 1 0.48 70.00 22.8544 6.8842 0 
148 1 0.45 70.00 15.6896 9.9464 0 
149 1 0.48 70.00 4.1580 2.9576 0 
150 1 0.47 70.00 19.1946 3.3859 0 
151 1 0.44 70.00 12.7743 11.1266 0 
152 1 0.47 70.00 11.7038 8.0484 0 
153 1 0.49 70.00 19.2508 7.2173 0 
154 1 0.49 70.00 17.8861 6.0226 0 
155 1 0.48 70.00 19.4683 8.0952 0 
156 1 0.46 70.00 22.7324 13.1057 0 
157 1 0.45 70.00 23.6334 8.4928 0 
158 1 0.45 70.00 4.1928 3.5344 0 
159 1 0.47 70.00 12.4293 8.1934 0 
160 1 0.50 70.00 12.4488 4.0668 0 
161 1 0.48 70.00 25.3689 5.9431 0 
162 1 0.46 70.00 8.6327 1.0914 0 
163 1 0.48 70.00 24.9089 12.8056 0 
164 1 0.44 70.00 14.5116 9.1302 0 
165 1 0.51 70.00 17.4902 3.6377 0 
166 1 0.47 70.00 15.6505 6.6833 0 
167 1 0.45 70.00 23.8105 14.1049 0 
168 1 0.47 70.00 3.4798 12.1741 0 
169 1 0.48 70.00 25.6651 9.3023 0 
170 1 0.45 70.00 16.7781 7.9284 0 
171 1 0.42 70.00 24.5357 9.7049 0 
172 1 0.45 70.00 22.6332 12.6457 0 
173 1 0.51 70.00 3.9295 1.3808 0 
174 1 0.48 70.00 4.9649 8.4772 0 
175 1 0.44 70.00 19.7031 2.5625 0 
176 1 0.46 70.00 25.3388 3.4968 0 
177 1 0.44 70.00 2.8259 1.8584 0 
178 1 0.46 70.00 27.4788 8.3261 0 
179 1 0.47 70.00 11.9653 8.5478 0 
180 1 0.48 70.00 7.7947 3.5509 0 
181 1 0.46 70.00 27.4410 1.9292 0 
182 1 0.44 70.00 4.9995 0.7583 0 
183 1 0.41 70.00 7.6357 2.8015 0 
184 1 0.48 70.00 17.2856 6.0567 0 
185 1 0.51 70.00 26.0862 3.4858 0 
186 1 0.45 70.00 6.5202 11.0194 0 
187 1 0.41 70.00 18.6378 8.6312 0 
188 1 0.48 70.00 16.2785 1.6148 0 
189 1 0.45 70.00 20.3421 9.5889 0 
190 1 0.51 70.00 14.5330 8.1904 0 
191 1 0.39 70.00 13.0147 9.6309 0 
192 1 0.48 70.00 22.0096 3.7602 0 
193 1 0.52 70.00 17.6930 14.1118 0 
194 1 0.48 70.00 27.2649 10.6845 0 
195 1 0.45 70.00 6.8623 8.7861 0 
196 1 0.47 70.00 27.1103 3.2093 0 
197 1 0.46 70.00 14.7309 10.1387 0 
198 1 0.42 70.00 17.4420 12.3954 0 
199 1 0.52 70.00 22.1285 5.3795 0 
200 1 0.46 70.00 9.1316 6.6961 0 
201 1 0.49 70.00 14.6084 5.7126 0 
202 1 0.48 70.00 19.9792 9.4318 0 
203 1 0.48 70.00 11.9961 7.4470 0 
204 1 0.47 70.00 17.4746 13.7829 0 
205 1 0.49 70.00 8.3787 9.6413 0 
206 1 0.49 70.00 4.1015 5.5153 0 
207 1 0.46 70.00 2.5320 4.1225 0 
208 1 0.45 70.00 3.4576 2.2664 0 
209 1 0.49 70.00 10.5511 1.2273 0 
210 1 0.47 70.00 20.3935 11.7065 0 
211 1 0.44 70.00 1.4965 10.1293 0 
212 1 0.52 70.00 2.8126 5.5822 0 
213 1 0.47 70.00 24.9970 6.3074 0 
214 1 0.46 70.00 19.8986 8.2413 0 
215 1 0.53 70.00 27.0401 12.9728 0 
216 1 0.45 70.00 12.2705 2.7447 0 
217 1 0.53 70.00 25.6578 7.3845 0 
218 1 0.45 70.00 11.9601 6.0818 0 
219 1 0.46 70.00 15.6985 12.2769 0 
220 1 0.43 70.00 23.5361 13.6425 0 
221 1 0.50 70.00 2.3356 8.2622 0 
222 1 0.50 70.00 21.0122 14.3028 0 
223 1 0.50 70.00 22.2362 14.0303 0 
224 1 0.48 70.00 12.3497 12.6895 0 
225 1 0.49 70.00 7.8374 13.4866 0 
226 1 0.50 70.00 2.2710 12.7497 0 
227 1 0.48 70.00 11.0810 13.1550 0 
228 1 0.52 70.00 20.1152 4.0627 0 
229 1 0.47 70.00 23.1838 13.8794 0 
230 1 0.46 70.00 10.7409 8.2679 0 
231 1 0.48 70.00 20.6821 3.5006 0 
232 1 0.46 70.00 18.3081 10.6878 0 
233 1 0.45 70.00 9.4692 9.6552 0 
234 1 0.48 70.00 25.5396 4.0792 0 
235 1 0.49 70.00 9.1178 5.5826 0 
236 1 0.42 70.00 4.5214 13.4719 0 
237 1 0.48 70.00 1.6421 6.3231 0 
238 1 0.50 70.00 19.6718 10.8357 0 
239 1 0.42 70.00 19.6830 12.1356 0 
240 1 0.42 70.00 3.1811 10.2811 0 
241 1 0.47 70.00 18.9502 5.7668 0 
242 1 0.41 70.00 25.2563 5.2769 0 
243 1 0.53 70.00 17.5721 3.1205 0 
244 1 0.50 70.00 18.1104 4.6406 0 
245 1 0.49 70.00 15.0254 10.1739 0 
246 1 0.45 70.00 21.8682 10.5635 0 
247 1 0.46 70.00 27.3342 4.4862 0 
248 1 0.46 70.00 20.3431 11.5108 0 
249 1 0.49 70.00 25.5593 5.6135 0 
250 1 0.51 70.00 19.0969 13.0680 0 
251 1 0.42 70.00 17.1766 9.8398 0 
252 1 0.49 70.00 24.7589 11.4090 0 
253 1 0.46 70.00 10.8459 13.0214 0 
254 1 0.48 70.00 23.9116 2.8054 0 
255 1 0.52 70.00 23.7131 6.4364 0 
256 1 0.48 70.00 12.2508 1.8917 0 
257 1 0.46 70.00 16.0488 2.5038 0 
258 1 0.49 70.00 19.5412 9.9086 0 
259 1 0.45 70.00 4.7866 1.6266 0 
260 1 0.38 70.00 1.6871 12.6883 0 
261 1 0.45 70.00 13.9432 6.1050 0 
262 1 0.49 70.00 20.1183 8.9762 0 
263 1 0.46 70.00 6.2643 13.4440 0 
264 1 0.44 70.00 19.2726 4.1492 0 
265 1 0.46 70.00 18.8925 11.1553 0 
266 1 0.46 70.00 5.8234 11.9276 0 
267 1 0.47 70.00 19.7252 12.4367 0 
268 1 0.41 70.00 25.8767 5.4610 0 
269 1 0.49 70.00 4.2239 13.3564 0 
270 1 0.47 70.00 21.1569 13.5464 0 
271 1 0.51 70.00 14.0579 13.9718 0 
272 1 0.47 70.00 25.5548 10.3257 0 
273 1 0.50 70.00 1.7295 5.4026 0 
274 1 0.46 70.00 13.4769 5.3457 0 
275 1 0.47 70.00 26.3365 8.8875 0 
276 1 0.50 70.00 18.2960 7.2679 0 
277 1 0.48 70.00 26.2331 5.3782 0 
278 1 0.48 70.00 5.2548 11.2014 0 
279 1 0.46 70.00 14.3495 4.9305 0 
280 1 0.49 70.00 20.6871 11.0376 0 
281 1 0.44 70.00 18.0769 7.8318 0 
282 1 0.47 70.00 18.3987 13.1574 0 
283 1 0.46 70.00 21.4057 7.4387 0 
284 1 0.50 70.00 19.3042 11.4909 0 
285 1 0.45 70.00 16.6082 4.9221 0 
286 1 0.46 70.00 23.3009 10.2561 0 
287 1 0.51 70.00 8.3418 0.8348 0 
288 1 0.45 70.00 21.1850 10.9038 0 
289 1 0.46 70.00 25.9064 4.9866 0 
290 1 0.45 70.00 10.1713 10.2811 0 
291 1 0.55 70.00 9.4539 10.0414 0 
292 1 0.48 70.00 25.1136 2.9971 0 
293 1 0.46 70.00 23.6704 2.1133 0 
294 1 0.43 70.00 27.4880 7.0346 0 
295 1 0.51 70.00 3.6739 12.2550 0 
296 1 0.49 70.00 13.3634 6.5769 0 
297 1 0.46 70.00 0.9094 10.5116 0 
298 1 0.40 70.00 16.8117 3.6214 0 
299 1 0.48 70.00 20.8938 11.7374 0 
300 1 0.51 70.00 25.7625 10.6035 0 
301 1 0.46 70.00 26.7361 1.6806 0 
302 1 0.51 70.00 10.2943 13.7860 0 
303 1 0.48 70.00 16.4501 1.0259 0 
304 1 0.47 70.00 21.8384 14.6283 0 
305 1 0.43 70.00 0.9952 13.3279 0 
306 1 0.48 70.00 0.6790 1.7728 0 
307 1 0.47 70.00 3.0643 7.1388 0 
308 1 0.50 70.00 17.9571 3.1641 0 
309 1 0.47 70.00 25.2460 4.5922 0 
310 1 0.47 70.00 26.9724 8.9039 0 
311 1 0.47 70.00 12.1568 5.2587 0 
312 1 0.47 70.00 1.9784 0.7537 0 
313 1 0.45 70.00 14.5266 1.7385 0 
314 1 0.47 70.00 11.3560 1.9707 0 
315 1 0.42 70.00 12.7955 2.8134 0 
316 1 0.47 70.00 13.5395 13.4555 0 
317 1 0.46 70.00 21.5094 4.9988 0 
318 1 0.47 70.00 3.9030 3.2542 0 
319 1 0.44 70.00 4.3084 1.0602 0 
320 1 0.48 70.00 6.6553 5.1473 0 
321 1 0.46 70.00 16.2807 13.7612 0 
322 1 0.49 70.00 21.6416 7.3024 0 
323 1 0.54 70.00 6.0917 8.1163 0 
324 1 0.47 70.00 19.2383 5.8330 0 
325 1 0.44 70.00 6.4860 9.6339 0 
326 1 0.47 70.00 15.7653 5.0965 0 
327 1 0.49 70.00 3.4954 6.5118 0 
328 1 0.48 70.00 7.3629 2.9860 0 
329 1 0.49 70.00 20.9197 13.7270 0 
330 1 0.43 70.00 9.0098 5.0626 0 
331 1 0.47 70.00 24.1329 2.2973 0 
332 1 0.42 70.00 26.8432 6.0503 0 
333 1 0.57 70.00 14.3174 1.6081 0 
334 1 0.42 70.00 11.1474 2.3175 0 
335 1 0.49 70.00 21.2653 2.3493 0 
336 1 0.49 70.00 8.8206 9.1862 0 
337 1 0.44 70.00 20.7508 8.5401 0 
338 1 0.47 70.00 27.6930 9.0364 0 
339 1 0.48 70.00 13.2701 14.6679 0 
340 1 0.50 70.00 12.3333 0.6498 0 
341 1 0.47 70.00 12.9165 2.5464 0 
342 1 0.52 70.00 22.2884 11.7598 0 
343 1 0.46 70.00 8.8397 4.2517 0 
344 1 0.45 70.00 21.0523 1.5532 0 
345 1 0.43 70.00 21.6801 9.0567 0 
346 1 0.50 70.00 11.2143 3.8200 0 
347 1 0.43 70.00 12.2380 6.4221 0 
348 1 0.40 70.00 7.3692 4.1249 0 
349 1 0.49 70.00 1.8566 8.0142 0 
350 1 0.49 70.00 23.6902 12.9939 0 
351 1 0.45 70.00 23.4217 7.2933 0 
352 1 0.49 70.00 6.6019 2.7297 0 
353 1 0.49 70.00 2.2973 1.7016 0 
354 1 0.43 70.00 18.6089 3.1931 0 
355 1 0.48 70.00 20.7988 1.5306 0 
356 1 0.49 70.00 8.6718 4.9627 0 
357 1 0.48 70.00 5.5233 7.5887 0 
358 1 0.51 70.00 2.2886 1.0049 0 
359 1 0.48 70.00 25.6139 8.6198 0 
360 1 0.42 70.00 24.2570 14.3171 0 
361 1 0.42 70.00 1.3404 4.8712 0 
362 1 0.48 70.00 26.2065 5.7033 0 
363 1 0.44 70.00 23.8662 1.6820 0 
364 1 0.48 70.00 15.5743 2.3847 0 
365 1 0.52 70.00 25.7041 3.0652 0 
366 1 0.48 70.00 24.0776 1.8185 0 
367 1 0.48 70.00 16.3903 5.4313 0 
368 1 0.47 70.00 1.8421 8.3581 0 
369 1 0.48 70.00 26.1680 4.2039 0 
370 1 0.49 70.00 15.6165 8.2399 0 
371 1 0.43 70.00 10.3395 6.2907 0 
372 1 0.47 70.00 8.6673 8.7301 0 
373 1 0.43 70.00 26.4531 8.0630 0 
374 1 0.48 70.00 15.9899 0.9693 0 
375 1 0.47 70.00 17.3563 10.8113 0 
376 1 0.45 70.00 2.6189 11.9480 0 
377 1 0.45 70.00 20.3580 5.7424 0 
378 1 0.44 70.00 26.8490 4.1185 0 
379 1 0.40 70.00 5.1733 4.8888 0 
380 1 0.51 70.00 17.2275 4.3971 0 
381 1 0.48 70.00 13.7640 7.7949 0 
382 1 0.47 70.00 8.2315 8.9952 0 
383 1 0.48 70.00 23.1699 2.7851 0 
384 1 0.45 70.00 13.5076 2.1413 0 
385 1 0.45 70.00 5.5752 8.3317 0 
386 1 0.48 70.00 25.0462 7.4669 0 
387 1 0.47 70.00 16.5624 14.3846 0 
388 1 0.44 70.00 3.2620 8.5409 0 
389 1 0.48 70.00 10.9351 6.8329 0 
390 1 0.46 70.00 14.4666 2.9043 0 
391 1 0.47 70.00 3.7961 5.2907 0 
392 1 0.49 70.00 9.0578 0.5879 0 
393 1 0.49 70.00 18.4932 1.2979 0 
394 1 0.46 70.00 8.1567 13.7595 0 
395 1 0.47 70.00 4.8159 11.5257 0 
396 1 0.46 70.00 20.4479 6.8580 0 
397 1 0.50 70.00 20.6476 2.9305 0 
398 1 0.48 70.00 1.3960 13.2206 0 
399 1 0.49 70.00 26.4205 0.8261 0 
400 1 0.47 70.00 12.0123 7.1749 0 
401 1 0.51 70.00 6.3395 6.1704 0 
402 1 0.48 70.00 0.9496 11.8581 0 
403 1 0.52 70.00 5.4914 11.9883 0 
404 1 0.52 70.00 3.0011 12.1943 0 
405 1 0.49 70.00 10.3289 2.9655 0 
406 1 0.49 70.00 12.6059 0.5008 0 
407 1 0.44 70.00 3.3750 8.1686 0 
408 1 0.43 70.00 14.2209 5.5451 0 
409 1 0.54 70.00 11.6524 1.1731 0 
410 1 0.44 70.00 22.8586 14.4850 0 
411 1 0.40 70.00 15.8416 14.4388 0 
412 1 0.45 70.00 8.7962 3.9950 0 
413 1 0.49 70.00 7.2722 9.5697 0 
414 1 0.46 70.00 23.7574 11.8211 0 
415 1 0.42 70.00 3.9028 12.0507 0 
416 1 0.48 70.00 19.7122 4.8652 0 
417 1 0.49 70.00 2.9230 2.9247 0 
418 1 0.44 70.00 6.9057 3.5213 0 
419 1 0.46 70.00 5.8165 9.5430 0 
420 1 0.47 70.00 2.4767 0.7307 0 
421 1 0.51 70.00 18.6277 2.2790 0 
422 1 0.48 70.00 27.5106 14.4395 0 
423 1 0.46 70.00 18.5134 11.1033 0 
424 1 0.43 70.00 14.7734 10.4110 0 
425 1 0.48 70.00 6.0945 14.4820 0 
426 1 0.54 70.00 26.1625 8.4303 0 
427 1 0.47 70.00 17.0435 6.6180 0 
428 1 0.42 70.00 1.1118 12.0644 0 
429 1 0.49 70.00 9.4161 11.4000 0 
430 1 0.49 70.00 26.2817 7.4457 0 
431 1 0.51 70.00 24.7913 7.8493 0 
432 1 0.50 70.00 11.6899 11.1008 0 
433 1 0.42 70.00 13.6034 11.6856 0 
434 1 0.43 70.00 6.2091 13.0485 0 
435 1 0.49 70.00 18.3103 0.9500 0 
436 1 0.42 70.00 19.8185 13.8247 0 
437 1 0.51 70.00 13.2940 6.8604 0 
438 1 0.46 70.00 16.3741 8.6924 0 
439 1 0.44 70.00 9.7029 7.1230 0 
440 1 0.42 70.00 9.4551 4.3459 0 
441 1 0.47 70.00 1.3870 9.4450 0 
442 1 0.52 70.00 15.6191 8.8235 0 
443 1 0.43 70.00 3.3371 6.7990 0 
444 1 0.42 70.00 2.8668 5.8195 0 
445 1 0.47 70.00 24.5653 7.5748 0 
446 1 0.46 70.00 26.4841 7.8595 0 
447 1 0.45 70.00 20.7469 6.1833 0 
448 1 0.47 70.00 15.8859 5.3001 0 
449 1 0.48 70.00 21.1111 12.3075 0 
450 1 0.49 70.00 8.0217 1.8830 0 
451 1 0.46 70.00 20.5277 9.4020 0 
452 1 0.42 70.00 3.2788 6.5171 0 
453 1 0.49 70.00 18.9871 6.5164 0 
454 1 0.45 70.00 15.6499 3.7790 0 
455 1 0.49 70.00 5.6815 9.0275 0 
456 1 0.41 70.00 11.4220 6.2589 0 
457 1 0.54 70.00 5.5001 12.6496 0 
458 1 0.47 70.00 0.5257 7.4770 0 
459 1 0.49 70.00 3.4520 1.1309 0 
460 1 0.52 70.00 24.8212 6.7002 0 
461 1 0.44 70.00 21.0879 8.9201 0 
462 1 0.49 70.00 8.1817 5.6966 0 
463 1 0.42 70.00 11.0940 11.5878 0 
464 1 0.48 70.00 8.7385 7.2317 0 
465 1 0.43 70.00 25.4602 12.4017 0 
466 1 0.43 70.00 5.9128 3.8605 0 
467 1 0.53 70.00 7.4809 6.8500 0 
468 1 0.44 70.00 13.9187 13.5981 0 
469 1 0.43 70.00 19.8061 5.1431 0 
470 1 0.46 70.00 2.2878 7.0936 0 
471 1 0.48 70.00 1.6861 10.6584 0 
472 1 0.43 70.00 8.1208 11.8642 0 
473 1 0.48 70.00 16.4368 10.6298 0 
474 1 0.46 70.00 19.8104 2.3487 0 
475 1 0.48 70.00 17.7557 12.9546 0 
476 1 0.44 70.00 19.1632 10.6069 0 
477 1 0.47 70.00 7.4677 12.3084 0 
478 1 0.53 70.00 10.0902 10.9546 0 
479 1 0.47 70.00 1.1681 1.6523 0 
480 1 0.48 70.00 15.3651 10.1509 0 
481 1 0.50 70.00 11.5870 2.8229 0 
482 1 0.44 70.00 6.9490 12.0944 0 
483 1 0.52 70.00 9.8534 7.5136 0 
484 1 0.52 70.00 7.4406 5.0633 0 
485 1 0.46 70.00 11.9374 1.9574 0 
486 1 0.49 70.00 26.2582 3.7455 0 
487 1 0.47 70.00 2.1756 12.9358 0 
488 1 0.49 70.00 21.4315 2.6382 0 
489 1 0.44 70.00 1.1858 3.0095 0 
490 1 0.46 70.00 26.2586 4.6282 0 
491 1 0.47 70.00 19.2280 6.2328 0 
492 1 0.51 70.00 6.4998 4.3938 0 
493 1 0.52 70.00 14.6616 10.6616 0 
494 1 0.48 70.00 21.6930 7.9740 0 
495 1 0.46 70.00 9.7491 3.4643 0 
496 1 0.48 70.00 25.2425 13.2627 0 
497 1 0.48 70.00 25.0787 1.4339 0 
498 1 0.49 70.00 1.9023 13.4188 0 
499 1 0.50 70.00 6.2336 11.4053 0 
500 1 0.44 70.00 12.2439 10.6035 0 
501 1 0.52 70.00 17.6351 11.5055 0 
502 1 0.47 70.00 15.8600 1.2823 0 
503 1 0.49 70.00 19.7542 4.3514 0 
504 1 0.52 70.00 27.7838 1.8462 0 
505 1 0.51 70.00 20.9834 0.5689 0 
506 1 0.51 70.00 19.6819 14.4423 0 
507 1 0.49 70.00 5.3286 7.0753 0 
508 1 0.47 70.00 1.4490 11.1375 0 
509 1 0.45 70.00 19.0564 12.1348 0 
510 1 0.49 70.00 25.8083 4.6130 0 
511 1 0.50 70.00 26.1208 10.7623 0 
512 1 0.44 70.00 4.5144 1.7419 0 
513 1 0.43 70.00 10.4725 1.9709 0 
514 1 0.49 70.00 1.8833 5.1814 0 
515 1 0.44 70.00 5.2148 11.6942 0 
516 1 0.46 70.00 5.4319 5.9114 0 
517 1 0.49 70.00 12.8472 1.2865 0 
518 1 0.45 70.00 20.2426 4.6571 0 
519 1 0.46 70.00 7.2059 12.9857 0 
520 1 0.50 70.00 10.9492 3.7431 0 
521 1 0.44 70.00 14.7342 11.4963 0 
522 1 0.46 70.00 7.5713 10.9088 0 
523 1 0.47 70.00 1.4129 0.7228 0 
524 1 0.48 70.00 4.2839 14.7083 0 
525 1 0.50 70.00 5.1844 8.2895 0 
526 1 0.47 70.00 1.5161 2.5128 0 
527 1 0.46 70.00 3.4058 11.5952 0 
528 1 0.49 70.00 17.0331 7.7888 0 
529 1 0.43 70.00 15.5102 12.5760 0 
530 1 0.53 70.00 18.7777 4.6515 0 
531 1 0.41 70.00 10.0041 4.4882 0 
532 1 0.46 70.00 9.7816 5.1070 0 
533 1 0.49 70.00 23.7729 4.6737 0 
534 1 0.49 70.00 7.1788 12.3584 0 
535 1 0.51 70.00 2.6333 3.8601 0 
536 1 0.46 70.00 9.3836 7.5830 0 
537 1 0.50 70.00 21.2554 5.3885 0 
538 1 0.44 70.00 15.0405 7.2245 0 
539 1 0.49 70.00 11.5653 10.0080 0 
540 1 0.49 70.00 20.5450 10.4487 0 
541 1 0.42 70.00 22.1960 9.5401 0 
542 1 0.49 70.00 5.2484 0.9515 0 
543 1 0.50 70.00 17.4208 0.8176 0 
544 1 0.46 70.00 24.2384 9.1959 0 
545 1 0.51 70.00 23.6185 7.3552 0 
546 1 0.46 70.00 3.5870 10.5467 0 
547 1 0.51 70.00 7.5209 5.6097 0 
548 1 0.47 70.00 8.3089 6.9291 0 
549 1 0.48 70.00 12.9691 5.5606 0 
550 1 0.42 70.00 3.7919 8.1996 0 
551 1 0.42 70.00 20.3709 0.7088 0 
552 1 0.52 70.00 5.8306 14.1906 0 
553 1 0.38 70.00 0.6981 5.0954 0 
554 1 0.46 70.00 22.5072 14.2182 0 
555 1 0.50 70.00 23.3867 13.0747 0 
556 1 0.43 70.00 7.4927 6.3930 0 
557 1 0.44 70.00 9.0922 12.7002 0 
558 1 0.45 70.00 20.4497 13.6426 0 
559 1 0.52 70.00 4.9612 2.1251 0 
560 1 0.47 70.00 23.4669 8.8603 0 
561 1 0.48 70.00 19.8798 3.9175 0 
562 1 0.44 70.00 12.0756 4.4505 0 
563 1 0.45 70.00 23.3803 9.4192 0 
564 1 0.45 70.00 26.7094 6.2971 0 
565 1 0.50 70.00 22.9442 5.2428 0 
566 1 0.52 70.00 26.6831 5.4655 0 
567 1 0.41 70.00 25.5872 3.4644 0 
568 1 0.44 70.00 17.0480 1.4497 0 
569 1 0.51 70.00 16.0760 3.7631 0 
570 1 0.52 70.00 20.6426 7.1225 0 
571 1 0.49 70.00 6.3391 7.9466 0 
572 1 0.46 70.00 25.4442 2.1236 0 
573 1 0.43 70.00 25.8122 1.5361 0 
574 1 0.47 70.00 7.7234 4.6853 0 
575 1 0.45 70.00 1.0093 4.0395 0 
576 1 0.48 70.00 26.4071 12.2261 0 
577 1 0.53 70.00 21.4601 8.7839 0 
578 1 0.51 70.00 0.6553 6.7375 0 
579 1 0.50 70.00 24.2563 5.1602 0 
580 1 0.52 70.00 3.6418 0.5497 0 
581 1 0.52 70.00 2.8347 11.4994 0 
582 1 0.51 70.00 9.7517 3.7328 0 
583 1 0.40 70.00 15.8638 13.3861 0 
584 1 0.39 70.00 5.0715 6.8111 0 
585 1 0.48 70.00 21.4344 9.6003 0 
586 1 0.50 70.00 7.4676 14.0419 0 
587 1 0.46 70.00 2.3187 13.7683 0 
588 1 0.45 70.00 24.6844 10.0880 0 
589 1 0.45 70.00 27.0575 13.8273 0 
590 1 0.42 70.00 14.7682 9.6849 0 
591 1 0.53 70.00 23.1351 14.4125 0 
592 1 0.48 70.00 27.5895 5.6683 0 
593 1 0.43 70.00 17.6277 2.6604 0 
594 1 0.52 70.00 7.3384 11.6407 0 
595 1 0.46 70.00 6.2661 11.7961 0 
596 1 0.44 70.00 17.0595 6.1288 0 
597 1 0.52 70.00 18.4072 2.0741 0 
598 1 0.45 70.00 13.7893 7.0123 0 
599 1 0.43 70.00 24.0714 3.5974 0 
600 1 0.47 70.00 14.8162 13.1533 0 
601 1 0.43 70.00 7.2531 14.5352 0 
602 1 0.55 70.00 7.3336 11.1066 0 
603 1 0.46 70.00 23.9292 3.1087 0 
604 1 0.44 70.00 7.3194 12.1290 0 
605 1 0.44 70.00 15.4970 9.8762 0 
606 1 0.46 70.00 27.3083 5.2732 0 
607 1 0.49 70.00 13.4692 1.4278 0 
608 1 0.47 70.00 21.2878 8.1148 0 
609 1 0.51 70.00 13.6524 8.5831 0 
610 1 0.48 70.00 19.4662 12.4336 0 
611 1 0.48 70.00 8.8077 11.0205 0 
612 1 0.46 70.00 23.7004 9.3442 0 
613 1 0.43 70.00 9.6620 8.7083 0 
614 1 0.43 70.00 18.9858 9.6748 0 
615 1 0.44 70.00 12.6041 7.8271 0 
616 1 0.52 70.00 5.5724 5.5559 0 
617 1 0.46 70.00 11.8387 3.0936 0 
618 1 0.49 70.00 22.0110 13.3665 0 
619 1 0.47 70.00 26.7460 8.4436 0 
620 1 0.46 70.00 21.5456 0.9352 0 
621 1 0.49 70.00 14.5252 2.3598 0 
622 1 0.49 70.00 8.7739 8.1468 0 
623 1 0.49 70.00 1.9953 13.6279 0 
624 1 0.53 70.00 13.9102 9.1165 0 
625 1 0.50 70.00 25.7439 1.1601 0 
626 1 0.49 70.00 22.4437 8.0978 0 
627 1 0.43 70.00 15.2566 3.1500 0 
628 1 0.47 70.00 13.5797 5.7901 0 
629 1 0.52 70.00 12.8296 7.8666 0 
630 1 0.47 70.00 11.5661 11.3525 0 
631 1 0.46 70.00 16.6078 6.7071 0 
632 1 0.42 70.00 16.6678 10.3192 0 
633 1 0.45 70.00 1.2632 9.6222 0 
634 1 0.47 70.00 12.7265 3.8049 0 
635 1 0.44 70.00 1.1704 12.3201 0 
636 1 0.44 70.00 17.2289 4.1040 0 
637 1 0.46 70.00 16.8190 12.2212 0 
638 1 0.50 70.00 24.2048 13.0298 0 
639 1 0.48 70.00 0.7028 13.9245 0 
640 1 0.47 70.00 14.9050 1.1570 0 
641 1 0.49 70.00 16.7119 11.5794 0 
642 1 0.48 70.00 11.6124 14.7119 0 
643 1 0.44 70.00 7.6108 4.0140 0 
644 1 0.48 70.00 20.0971 14.2399 0 
645 1 0.43 70.00 23.8606 2.5848 0 
646 1 0.46 70.00 11.9823 1.4971 0 
647 1 0.48 70.00 18.9308 3.6654 0 
648 1 0.45 70.00 23.3163 11.9921 0 
649 1 0.48 70.00 5.7084 2.2725 0 
650 1 0.48 70.00 2.3085 12.3191 0 
651 1 0.50 70.00 19.6441 12.7760 0 
652 1 0.47 70.00 14.2467 9.9395 0 
653 1 0.50 70.00 18.2923 9.5509 0 
654 1 0.43 70.00 12.1352 10.2993 0 
655 1 0.49 70.00 12.4244 2.4065 0 
656 1 0.47 70.00 20.7460 8.9836 0 
657 1 0.52 70.00 6.5213 5.6938 0 
658 1 0.46 70.00 10.1144 7.7279 0 
659 1 0.48 70.00 22.9775 7.6746 0 
660 1 0.45 70.00 9.4704 9.3481 0 
661 1 0.49 70.00 16.2431 8.0149 0 
662 1 0.50 70.00 20.7451 2.4533 0 
663 1 0.50 70.00 12.6961 11.7931 0 
664 1 0.52 70.00 18.1396 9.7138 0 
665 1 0.52 70.00 12.3435 11.0830 0 
666 1 0.46 70.00 2.6944 10.0473 0 
667 1 0.55 70.00 10.9939 9.5835 0 
668 1 0.50 70.00 23.4684 0.9083 0 
669 1 0.46 70.00 18.7889 11.3932 0 
670 1 0.52 70.00 17.4518 5.1647 0 
671 1 0.48 70.00 26.0908 1.7324 0 
672 1 0.43 70.00 16.4358 3.0574 0 
673 1 0.47 70.00 14.1554 4.5072 0 
674 1 0.47 70.00 23.6519 2.3279 0 
675 1 0.45 70.00 6.7688 6.2014 0 
676 1 0.43 70.00 12.5653 6.7668 0 
677 1 0.44 70.00 11.3043 7.4478 0 
678 1 0.45 70.00 13.2831 12.8603 0 
679 1 0.44 70.00 25.2265 6.6689 0 
680 1 0.43 70.00 17.3794 9.7066 0 
681 1 0.44 70.00 4.8220 10.0875 0 
682 1 0.50 70.00 15.7877 6.9080 0 
683 1 0.45 70.00 7.3615 2.0527 0 
684 1 0.49 70.00 22.2539 7.4926 0 
685 1 0.49 70.00 2.8491 9.4818 0 
686 1 0.48 70.00 7.0398 1.8013 0 
687 1 0.48 70.00 14.8785 4.1638 0 
688 1 0.48 70.00 15.5497 7.8917 0 
689 1 0.46 70.00 2.0704 3.9251 0 
690 1 0.44 70.00 15.1528 1.4075 0 
691 1 0.51 70.00 5.6650 1.2729 0 
692 1 0.43 70.00 15.3415 10.7742 0 
693 1 0.50 70.00 24.0323 12.8534 0 
694 1 0.45 70.00 3.8790 6.9908 0 
695 1 0.48 70.00 5.3697 6.8150 0 
696 1 0.45 70.00 6.2860 1.4333 0 
697 1 0.45 70.00 18.1146 9.2171 0 
698 1 0.47 70.00 18.5534 5.0131 0 
699 1 0.53 70.00 16.4521 10.3927 0 
700 1 0.50 70.00 19.8769 7.7194 0 
701 1 0.51 70.00 4.8185 1.3445 0 
702 1 0.49 70.00 17.6468 11.9086 0 
703 1 0.44 70.00 26.4343 13.1781 0 
704 1 0.48 70.00 11.6745 6.1981 0 
705 1 0.44 70.00 4.5412 9.6646 0 
706 1 0.50 70.00 23.0810 8.8221 0 
707 1 0.45 70.00 2.5697 9.8119 0 
708 1 0.51 70.00 12.9525 9.9013 0 
709 1 0.46 70.00 4.8817 10.9085 0 
710 1 0.53 70.00 19.9450 2.5719 0 
711 1 0.52 70.00 2.2461 4.9058 0 
712 1 0.49 70.00 3.4650 12.8587 0 
713 1 0.47 70.00 15.0029 7.5383 0 
714 1 0.46 70.00 9.6552 12.8580 0 
715 1 0.47 70.00 24.5085 13.0683 0 
716 1 0.46 70.00 11.0974 5.6857 0 
717 1 0.49 70.00 25.6075 5.1165 0 
718 1 0.45 70.00 16.0999 4.3429 0 
719 1 0.49 70.00 10.2491 10.4785 0 
720 1 0.48 70.00 27.3534 2.7585 0 
721 1 0.46 70.00 14.0653 3.6433 0 
722 1 0.46 70.00 3.3146 11.1508 0 
723 1 0.43 70.00 20.5412 1.5122 0 
724 1 0.51 70.00 10.6154 3.1046 0 
725 1 0.51 70.00 7.8521 10.0843 0 
726 1 0.43 70.00 18.1692 2.7256 0 
727 1 0.45 70.00 11.1643 10.9276 0 
728 1 0.45 70.00 14.6899 14.2193 0 
729 1 0.44 70.00 10.4087 13.0476 0 
730 1 0.45 70.00 13.0420 7.8272 0 
731 1 0.48 70.00 12.3139 14.6821 0 
732 1 0.49 70.00 13.4380 10.9029 0 
733 1 0.51 70.00 0.9593 10.1119 0 
734 1 0.45 70.00 13.0996 10.9602 0 
735 1 0.46 70.00 27.6080 13.5116 0 
736 1 0.48 70.00 14.2784 10.2523 0 
737 1 0.43 70.00 2.9139 7.3059 0 
738 1 0.42 70.00 26.6975 3.6378 0 
739 1 0.40 70.00 27.6193 4.4696 0 
740 1 0.45 70.00 27.7772 8.7574 0 
741 1 0.49 70.00 16.6034 5.5369 0 
742 1 0.52 70.00 0.7148 9.1862 0 
743 1 0.47 70.00 11.3432 11.5798 0 
744 1 0.43 70.00 0.7561 10.2954 0 
745 1 0.46 70.00 14.8740 12.1426 0 
746 1 0.48 70.00 27.2456 10.9498 0 
747 1 0.44 70.00 3.8708 11.4198 0 
748 1 0.52 70.00 21.3354 4.4933 0 
749 1 0.46 70.00 11.4397 6.0416 0 
750 1 0.50 70.00 16.0471 13.1189 0 
751 1 0.50 70.00 25.8805 4.3862 0 
752 1 0.45 70.00 12.6418 13.6535 0 
753 1 0.49 70.00 26.7668 0.8585 0 
754 1 0.48 70.00 15.7792 5.7389 0 
755 1 0.47 70.00 26.8170 5.8020 0 
756 1 0.45 70.00 0.5860 14.3173 0 
757 1 0.46 70.00 5.4294 8.1937 0 
758 1 0.45 70.00 21.5640 5.6889 0 
759 1 0.46 70.00 9.3785 6.2587 0 
760 1 0.47 70.00 14.3845 11.3712 0 
761 1 0.49 70.00 9.0767 9.5187 0 
762 1 0.52 70.00 1.1261 4.6603 0 
763 1 0.42 70.00 19.2525 2.7952 0 
764 1 0.50 70.00 15.8962 10.8129 0 
765 1 0.45 70.00 9.5244 12.4187 0 
766 1 0.48 70.00 25.5600 14.6859 0 
767 1 0.47 70.00 14.5600 2.6362 0 
768 1 0.51 70.00 23.3488 8.5681 0 
769 1 0.49 70.00 9.0024 14.2885 0 
770 1 0.41 70.00 21.1812 0.8465 0 
771 1 0.47 70.00 18.4442 2.8023 0 
772 1 0.48 70.00 0.5136 7.7674 0 
773 1 0.53 70.00 12.9170 3.7210 0 
774 1 0.50 70.00 23.2266 4.4620 0 
775 1 0.47 70.00 22.6757 4.3664 0 
776 1 0.41 70.00 20.2509 8.2395 0 
777 1 0.44 70.00 19.5618 7.0617 0 
778 1 0.50 70.00 24.1227 2.8789 0 
779 1 0.51 70.00 15.0695 13.9643 0 
780 1 0.49 70.00 24.3577 8.9111 0 
781 1 0.47 70.00 1.0227 0.5973 0 
782 1 0.47 70.00 19.5561 4.0311 0 
783 1 0.51 70.00 15.2652 4.4056 0 
784 1 0.47 70.00 23.8630 6.0963 0 
785 1 0.48 70.00 3.8004 9.4076 0 
786 1 0.45 70.00 8.8833 6.9044 0 
787 1 0.46 70.00 4.7228 14.3055 0 
788 1 0.48 70.00 2.1790 9.8545 0 
789 1 0.54 70.00 16.9731 8.8692 0 
790 1 0.48 70.00 16.0402 9.6674 0 
791 1 0.47 70.00 18.9693 9.4629 0 
792 1 0.48 70.00 22.7201 7.5689 0 
793 1 0.49 70.00 20.9060 4.9523 0 
794 1 0.48 70.00 9.3932 5.7441 0 
795 1 0.48 70.00 26.6455 9.0680 0 
796 1 0.49 70.00 6.6254 8.7694 0 
797 1 0.48 70.00 22.7424 9.4615 0 
798 1 0.48 70.00 16.8541 1.2194 0 
799 1 0.45 70.00 14.8343 5.7949 0 
800 1 0.52 70.00 20.9197 10.9720 0 
801 1 0.50 70.00 18.1976 6.4246 0 
802 1 0.48 70.00 16.3202 0.7972 0 
803 1 0.46 70.00 11.5846 4.8652 0 
804 1 0.52 70.00 2.1950 0.6332 0 
805 1 0.42 70.00 5.9210 13.2587 0 
806 1 0.46 70.00 22.2864 0.6023 0 
807 1 0.43 70.00 1.5297 4.5370 0 
808 1 0.47 70.00 4.1729 8.4161 0 
809 1 0.48 70.00 23.2284 9.0885 0 
810 1 0.53 70.00 18.8026 11.9466 0 
811 1 0.43 70.00 2.8403 10.7347 0 
812 1 0.44 70.00 1.3657 14.0220 0 
813 1 0.47 70.00 26.5050 1.3497 0 
814 1 0.48 70.00 5.6244 4.6196 0 
815 1 0.44 70.00 9.5527 6.7713 0 
816 1 0.51 70.00 4.9913 4.5332 0 
817 1 0.47 70.00 18.6350 4.3761 0 
818 1 0.47 70.00 24.5193 10.7349 0 
819 1 0.48 70.00 10.1015 3.7063 0 
820 1 0.45 70.00 8.7284 2.4714 0 
821 1 0.42 70.00 25.3844 7.6852 0 
822 1 0.50 70.00 22.1690 7.8402 0 
823 1 0.48 70.00 21.6845 7.0742 0 
824 1 0.49 70.00 27.6309 14.2038 0 
825 1 0.42 70.00 0.5429 3.0946 0 
826 1 0.44 70.00 24.7680 0.9916 0 
827 1 0.44 70.00 4.0394 0.5724 0 
828 1 0.51 70.00 12.8863 4.4875 0 
829 1 0.50 70.00 24.4271 13.8876 0 
830 1 0.45 70.00 12.4956 11.9725 0 
831 1 0.43 70.00 18.0720 7.1080 0 
832 1 0.42 70.00 22.1862 11.9370 0 
833 1 0.50 70.00 22.9669 1.4796 0 
834 1 0.44 70.00 14.2978 8.7245 0 
835 1 0.47 70.00 8.1255 12.5866 0 
836 1 0.48 70.00 23.4015 2.8523 0 
837 1 0.46 70.00 4.3382 5.5526 0 
838 1 0.51 70.00 4.8456 6.2206 0 
839 1 0.46 70.00 10.6485 14.2403 0 
840 1 0.51 70.00 20.9042 8.0739 0 
841 1 0.45 70.00 7.0306 11.3389 0 
842 1 0.45 70.00 23.8972 3.9453 0 
843 1 0.49 70.00 14.0702 0.5340 0 
844 1 0.44 70.00 18.8785 12.4107 0 
845 1 0.44 70.00 21.9849 4.6500 0 
846 1 0.51 70.00 9.6180 4.7457 0 
847 1 0.47 70.00 0.6523 12.5764 0 
848 1 0.46 70.00 6.8379 2.2890 0 
849 1 0.46 70.00 8.1393 7.7610 0 
850 1 0.53 70.00 3.1599 10.6004 0 
851 1 0.52 70.00 27.0502 14.5702 0 
852 1 0.47 70.00 17.1495 5.2823 0 
853 1 0.46 70.00 24.7140 13.6190 0 
854 1 0.47 70.00 8.3831 7.6279 0 
855 1 0.46 70.00 20.9921 4.5094 0 
856 1 0.49 70.00 11.4327 4.6920 0 