# LAMMPS data file for rigid bodies

840 atoms

2 atom types

0.0 	 28.0 	 xlo xhi 
0.0 	 15.0 	 ylo yhi 
-1.0 	 1.0 	 zlo zhi 

Atoms

1 1 0.47 70.00 5.2496 12.0095 0 
2 1 0.48 70.00 18.2243 5.7544 0 
3 1 0.45 70.00 4.6857 5.7952 0 
4 1 0.43 70.00 20.2349 10.8255 0 
5 1 0.47 70.00 25.4065 8.5572 0 
6 1 0.48 70.00 7.2416 12.9620 0 
7 1 0.50 70.00 0.6635 1.5493 0 
8 1 0.40 70.00 10.1963 12.5821 0 
9 1 0.44 70.00 12.7747 7.6945 0 
10 1 0.53 70.00 2.3364 11.1711 0 
11 1 0.45 70.00 17.7763 2.8404 0 
12 1 0.47 70.00 16.9098 8.1252 0 
13 1 0.43 70.00 5.2454 10.9505 0 
14 1 0.47 70.00 26.8873 4.8934 0 
15 1 0.47 70.00 4.0561 2.3350 0 
16 1 0.48 70.00 25.2053 5.6667 0 
17 1 0.49 70.00 22.6520 9.2715 0 
18 1 0.44 70.00 22.2599 4.2617 0 
19 1 0.53 70.00 9.7025 7.0201 0 
20 1 0.48 70.00 15.5937 8.7148 0 
21 1 0.53 70.00 0.5644 8.7907 0 
22 1 0.46 70.00 24.3416 4.7557 0 
23 1 0.50 70.00 24.5797 2.0815 0 
24 1 0.45 70.00 10.4822 1.8095 0 
25 1 0.46 70.00 12.9524 6.7977 0 
26 1 0.49 70.00 10.1668 11.8197 0 
27 1 0.50 70.00 10.9669 5.2008 0 
28 1 0.51 70.00 8.6002 10.8188 0 
29 1 0.41 70.00 14.6118 6.7777 0 
30 1 0.54 70.00 26.8473 5.4598 0 
31 1 0.46 70.00 2.1912 3.7291 0 
32 1 0.46 70.00 11.9912 9.2279 0 
33 1 0.48 70.00 21.7549 1.4257 0 
34 1 0.50 70.00 7.1096 5.4785 0 
35 1 0.43 70.00 27.0694 1.0647 0 
36 1 0.50 70.00 25.2741 7.4091 0 
37 1 0.51 70.00 2.3778 14.3349 0 
38 1 0.50 70.00 25.2534 14.5076 0 
39 1 0.49 70.00 16.4188 3.0340 0 
40 1 0.47 70.00 17.0339 14.4138 0 
41 1 0.48 70.00 20.5878 14.3198 0 
42 1 0.48 70.00 10.2805 2.7957 0 
43 1 0.48 70.00 8.2603 5.9800 0 
44 1 0.46 70.00 26.6526 11.9590 0 
45 1 0.50 70.00 20.5523 5.7708 0 
46 1 0.47 70.00 2.3244 5.3241 0 
47 1 0.52 70.00 25.0179 7.2833 0 
48 1 0.47 70.00 13.7278 4.1071 0 
49 1 0.46 70.00 12.3546 3.9236 0 
50 1 0.51 70.00 26.1995 5.3109 0 
51 1 0.49 70.00 21.5396 12.1185 0 
52 1 0.42 70.00 0.7112 14.4375 0 
53 1 0.45 70.00 21.2649 5.2777 0 
54 1 0.50 70.00 8.9183 0.6703 0 
55 1 0.47 70.00 21.3586 3.8348 0 
56 1 0.49 70.00 7.1069 4.6860 0 
57 1 0.46 70.00 13.3906 1.6262 0 
58 1 0.54 70.00 0.9997 8.0689 0 
59 1 0.44 70.00 11.9698 12.0382 0 
60 1 0.52 70.00 3.8009 5.6883 0 
61 1 0.44 70.00 24.3909 14.1343 0 
62 1 0.47 70.00 22.1609 12.9807 0 
63 1 0.45 70.00 21.5054 9.2160 0 
64 1 0.45 70.00 2.8308 2.8561 0 
65 1 0.47 70.00 6.5761 10.2758 0 
66 1 0.51 70.00 26.9227 10.4947 0 
67 1 0.44 70.00 11.8455 3.1220 0 
68 1 0.46 70.00 14.0253 11.6167 0 
69 1 0.47 70.00 9.3637 7.4311 0 
70 1 0.46 70.00 22.7224 9.0642 0 
71 1 0.39 70.00 6.1769 6.4523 0 
72 1 0.49 70.00 9.6157 9.5825 0 
73 1 0.48 70.00 16.4263 9.4683 0 
74 1 0.49 70.00 12.4625 3.4664 0 
75 1 0.48 70.00 24.1149 11.7516 0 
76 1 0.49 70.00 21.7330 11.3364 0 
77 1 0.47 70.00 23.8624 11.3741 0 
78 1 0.51 70.00 14.3523 13.9905 0 
79 1 0.43 70.00 8.8631 3.7427 0 
80 1 0.47 70.00 22.7414 5.3089 0 
81 1 0.46 70.00 26.0394 13.8254 0 
82 1 0.49 70.00 14.3814 8.0068 0 
83 1 0.50 70.00 27.7712 9.1036 0 
84 1 0.45 70.00 20.9804 11.2193 0 
85 1 0.49 70.00 1.8455 2.4656 0 
86 1 0.48 70.00 20.6502 7.1217 0 
87 1 0.44 70.00 3.8090 5.9113 0 
88 1 0.48 70.00 8.2672 13.7376 0 
89 1 0.48 70.00 20.2997 2.9125 0 
90 1 0.54 70.00 5.1759 9.5023 0 
91 1 0.42 70.00 27.5396 14.1703 0 
92 1 0.45 70.00 13.4397 6.2282 0 
93 1 0.50 70.00 25.2722 11.0177 0 
94 1 0.44 70.00 17.2102 0.6551 0 
95 1 0.49 70.00 6.9967 12.8693 0 
96 1 0.46 70.00 17.5224 1.6610 0 
97 1 0.44 70.00 12.8237 11.5384 0 
98 1 0.46 70.00 14.6140 9.0375 0 
99 1 0.44 70.00 13.8958 5.0199 0 
100 1 0.43 70.00 7.7474 2.6182 0 
101 1 0.47 70.00 11.0129 6.9038 0 
102 1 0.43 70.00 6.8113 2.6763 0 
103 1 0.51 70.00 14.7086 13.8158 0 
104 1 0.48 70.00 22.5065 14.7355 0 
105 1 0.43 70.00 13.6936 2.9301 0 
106 1 0.49 70.00 5.7530 4.3938 0 
107 1 0.48 70.00 21.9728 0.5442 0 
108 1 0.49 70.00 1.4709 5.2997 0 
109 1 0.46 70.00 1.4493 13.0284 0 
110 1 0.52 70.00 5.3623 6.3791 0 
111 1 0.46 70.00 15.3193 0.7562 0 
112 1 0.49 70.00 16.0288 1.8490 0 
113 1 0.45 70.00 24.3843 10.1764 0 
114 1 0.51 70.00 26.7632 12.4978 0 
115 1 0.49 70.00 17.6280 10.1683 0 
116 1 0.46 70.00 14.5257 10.8937 0 
117 1 0.50 70.00 14.0441 13.6967 0 
118 1 0.53 70.00 14.1040 9.3309 0 
119 1 0.50 70.00 23.4372 10.8634 0 
120 1 0.44 70.00 15.1222 6.4817 0 
121 1 0.46 70.00 8.4482 2.4661 0 
122 1 0.49 70.00 1.9077 14.3701 0 
123 1 0.46 70.00 2.3765 10.7269 0 
124 1 0.47 70.00 11.5850 8.1433 0 
125 1 0.47 70.00 6.4684 2.7645 0 
126 1 0.47 70.00 9.6273 10.5105 0 
127 1 0.47 70.00 6.2551 3.6231 0 
128 1 0.48 70.00 10.2070 9.1785 0 
129 1 0.49 70.00 4.8592 7.0087 0 
130 1 0.48 70.00 21.2677 2.8034 0 
131 1 0.50 70.00 13.2564 13.7698 0 
132 1 0.47 70.00 7.8001 3.1435 0 
133 1 0.49 70.00 1.0334 13.2052 0 
134 1 0.42 70.00 19.4426 9.1797 0 
135 1 0.44 70.00 5.6038 8.9659 0 
136 1 0.48 70.00 14.9214 14.1211 0 
137 1 0.49 70.00 23.2310 5.0216 0 
138 1 0.44 70.00 26.6639 2.2201 0 
139 1 0.50 70.00 12.1647 11.7317 0 
140 1 0.51 70.00 21.5763 10.4717 0 
141 1 0.49 70.00 22.6627 13.7039 0 
142 1 0.46 70.00 14.8843 1.8984 0 
143 1 0.45 70.00 16.5978 14.4479 0 
144 1 0.51 70.00 20.0926 9.2075 0 
145 1 0.49 70.00 4.7451 14.0437 0 
146 1 0.43 70.00 26.5688 14.2564 0 
147 1 0.41 70.00 24.3787 7.2756 0 
148 1 0.46 70.00 7.8271 11.5109 0 
149 1 0.46 70.00 20.3912 14.2144 0 
150 1 0.48 70.00 10.3676 6.3950 0 
151 1 0.43 70.00 7.5953 12.3913 0 
152 1 0.48 70.00 22.1156 8.4761 0 
153 1 0.50 70.00 3.1384 3.6007 0 
154 1 0.49 70.00 20.8887 6.7776 0 
155 1 0.50 70.00 8.9697 2.9364 0 
156 1 0.50 70.00 22.9076 2.1683 0 
157 1 0.48 70.00 11.7317 5.6813 0 
158 1 0.43 70.00 9.1077 7.4520 0 
159 1 0.50 70.00 6.2968 13.3323 0 
160 1 0.49 70.00 3.8318 11.0325 0 
161 1 0.44 70.00 12.2033 9.3451 0 
162 1 0.45 70.00 22.5811 7.0222 0 
163 1 0.46 70.00 7.1683 2.6675 0 
164 1 0.48 70.00 26.1015 4.7105 0 
165 1 0.50 70.00 0.8553 11.0835 0 
166 1 0.49 70.00 26.6486 13.9047 0 
167 1 0.44 70.00 4.2638 5.1287 0 
168 1 0.49 70.00 21.0746 5.6732 0 
169 1 0.46 70.00 12.3276 4.4248 0 
170 1 0.49 70.00 3.1931 8.5555 0 
171 1 0.48 70.00 11.3214 9.4464 0 
172 1 0.54 70.00 19.1606 10.4029 0 
173 1 0.39 70.00 27.1769 4.9033 0 
174 1 0.51 70.00 25.8049 5.5522 0 
175 1 0.47 70.00 24.2136 8.3713 0 
176 1 0.47 70.00 24.5661 4.0380 0 
177 1 0.46 70.00 20.8247 3.4637 0 
178 1 0.41 70.00 23.8534 3.5220 0 
179 1 0.49 70.00 13.4433 4.0062 0 
180 1 0.46 70.00 4.2635 1.9802 0 
181 1 0.49 70.00 22.4188 10.5475 0 
182 1 0.45 70.00 2.9453 2.5570 0 
183 1 0.46 70.00 19.4544 3.2368 0 
184 1 0.52 70.00 25.1185 8.6764 0 
185 1 0.52 70.00 25.9857 3.1374 0 
186 1 0.48 70.00 25.4036 6.9524 0 
187 1 0.48 70.00 24.1299 3.6145 0 
188 1 0.46 70.00 15.8730 9.8238 0 
189 1 0.50 70.00 6.9795 2.2175 0 
190 1 0.47 70.00 12.1457 3.7746 0 
191 1 0.47 70.00 6.4627 11.1087 0 
192 1 0.42 70.00 4.4076 3.5405 0 
193 1 0.47 70.00 3.2078 5.2531 0 
194 1 0.44 70.00 5.7542 5.4205 0 
195 1 0.40 70.00 20.4085 12.0316 0 
196 1 0.47 70.00 18.7756 7.4455 0 
197 1 0.46 70.00 14.5450 3.6545 0 
198 1 0.49 70.00 23.4199 3.4463 0 
199 1 0.45 70.00 16.5455 10.7886 0 
200 1 0.48 70.00 20.5382 2.9946 0 
201 1 0.44 70.00 18.5054 12.0708 0 
202 1 0.48 70.00 1.8904 5.3607 0 
203 1 0.44 70.00 25.3020 7.1711 0 
204 1 0.43 70.00 14.2381 7.2386 0 
205 1 0.46 70.00 17.7884 10.4788 0 
206 1 0.47 70.00 12.6438 6.4735 0 
207 1 0.42 70.00 27.3096 1.0316 0 
208 1 0.42 70.00 9.1018 6.5176 0 
209 1 0.51 70.00 26.3452 1.5241 0 
210 1 0.50 70.00 16.8090 10.6336 0 
211 1 0.42 70.00 10.2556 9.4587 0 
212 1 0.50 70.00 3.1711 4.0475 0 
213 1 0.53 70.00 21.7783 11.6798 0 
214 1 0.46 70.00 7.0886 6.5123 0 
215 1 0.47 70.00 20.6203 1.1732 0 
216 1 0.40 70.00 13.8902 11.8751 0 
217 1 0.52 70.00 23.2583 6.3169 0 
218 1 0.49 70.00 1.7497 7.5310 0 
219 1 0.51 70.00 21.2820 2.2880 0 
220 1 0.50 70.00 14.0635 7.0164 0 
221 1 0.43 70.00 4.3113 3.1153 0 
222 1 0.48 70.00 2.3236 6.1481 0 
223 1 0.55 70.00 3.5971 12.0436 0 
224 1 0.52 70.00 21.4771 12.8330 0 
225 1 0.46 70.00 12.0818 8.1644 0 
226 1 0.44 70.00 3.2562 6.6746 0 
227 1 0.45 70.00 8.9048 1.4551 0 
228 1 0.46 70.00 2.4476 3.9362 0 
229 1 0.46 70.00 9.4946 1.3621 0 
230 1 0.44 70.00 14.6242 14.6278 0 
231 1 0.51 70.00 0.8781 3.1505 0 
232 1 0.45 70.00 5.2093 13.4411 0 
233 1 0.54 70.00 2.0099 4.8267 0 
234 1 0.50 70.00 8.1360 14.5879 0 
235 1 0.50 70.00 5.0120 10.4124 0 
236 1 0.50 70.00 16.7557 6.7106 0 
237 1 0.56 70.00 25.8669 4.1399 0 
238 1 0.48 70.00 4.2527 9.8141 0 
239 1 0.48 70.00 18.7335 4.1866 0 
240 1 0.44 70.00 17.0307 5.9380 0 
241 1 0.48 70.00 20.0756 4.0534 0 
242 1 0.48 70.00 5.6234 1.2523 0 
243 1 0.49 70.00 27.6598 2.3464 0 
244 1 0.48 70.00 14.0816 9.9977 0 
245 1 0.46 70.00 1.4197 5.8388 0 
246 1 0.46 70.00 13.6659 6.5219 0 
247 1 0.53 70.00 21.9371 14.7307 0 
248 1 0.48 70.00 19.6487 3.1417 0 
249 1 0.49 70.00 22.2958 2.5198 0 
250 1 0.48 70.00 9.4738 4.7405 0 
251 1 0.47 70.00 4.9897 1.7811 0 
252 1 0.40 70.00 4.1940 12.3619 0 
253 1 0.48 70.00 11.8410 13.6198 0 
254 1 0.48 70.00 27.6134 7.2196 0 
255 1 0.55 70.00 17.6307 3.2166 0 
256 1 0.43 70.00 1.6466 13.4594 0 
257 1 0.49 70.00 13.0800 4.7095 0 
258 1 0.43 70.00 13.7408 7.4867 0 
259 1 0.45 70.00 13.6840 1.7011 0 
260 1 0.50 70.00 7.3485 9.8909 0 
261 1 0.51 70.00 22.7366 0.9848 0 
262 1 0.50 70.00 9.8905 11.9409 0 
263 1 0.44 70.00 16.7278 10.1368 0 
264 1 0.46 70.00 13.9081 12.7349 0 
265 1 0.47 70.00 10.7753 12.8871 0 
266 1 0.48 70.00 10.8286 9.7369 0 
267 1 0.48 70.00 8.3430 11.9215 0 
268 1 0.45 70.00 8.6944 7.6624 0 
269 1 0.48 70.00 2.8036 13.3456 0 
270 1 0.48 70.00 26.8889 12.2589 0 
271 1 0.41 70.00 6.7849 10.5378 0 
272 1 0.45 70.00 16.0470 7.2858 0 
273 1 0.48 70.00 7.8088 8.3419 0 
274 1 0.42 70.00 10.4401 8.0858 0 
275 1 0.49 70.00 11.5771 4.4507 0 
276 1 0.48 70.00 26.6956 3.8675 0 
277 1 0.53 70.00 23.2578 12.9232 0 
278 1 0.48 70.00 22.9681 4.9799 0 
279 1 0.46 70.00 16.8703 13.1993 0 
280 1 0.47 70.00 22.9183 8.8229 0 
281 1 0.45 70.00 18.5210 14.2372 0 
282 1 0.55 70.00 7.8199 7.3226 0 
283 1 0.50 70.00 6.1088 2.8256 0 
284 1 0.48 70.00 20.5780 10.8631 0 
285 1 0.49 70.00 27.1775 10.0611 0 
286 1 0.45 70.00 24.9050 8.6874 0 
287 1 0.48 70.00 4.8479 9.4574 0 
288 1 0.43 70.00 21.2763 8.9624 0 
289 1 0.45 70.00 20.4232 9.3270 0 
290 1 0.50 70.00 8.3915 12.2772 0 
291 1 0.47 70.00 10.7610 10.2363 0 
292 1 0.46 70.00 23.7722 6.5910 0 
293 1 0.47 70.00 11.2880 9.8079 0 
294 1 0.52 70.00 13.4014 11.0930 0 
295 1 0.47 70.00 10.1165 4.8738 0 
296 1 0.47 70.00 1.0029 4.9067 0 
297 1 0.47 70.00 26.3486 10.4743 0 
298 1 0.50 70.00 9.6235 11.8862 0 
299 1 0.52 70.00 6.8396 9.6101 0 
300 1 0.50 70.00 23.1576 12.2053 0 
301 1 0.46 70.00 6.5387 7.8039 0 
302 1 0.45 70.00 11.5333 4.7109 0 
303 1 0.42 70.00 14.7629 12.4445 0 
304 1 0.44 70.00 15.5576 0.5735 0 
305 1 0.49 70.00 7.3503 3.2279 0 
306 1 0.47 70.00 13.8557 5.9441 0 
307 1 0.45 70.00 26.9546 8.5513 0 
308 1 0.45 70.00 23.3017 10.0715 0 
309 1 0.47 70.00 7.1952 3.4211 0 
310 1 0.46 70.00 13.3189 0.5457 0 
311 1 0.48 70.00 16.0336 1.3440 0 
312 1 0.49 70.00 10.6659 8.0789 0 
313 1 0.39 70.00 22.0777 2.0330 0 
314 1 0.44 70.00 5.8264 6.9538 0 
315 1 0.44 70.00 9.2069 10.7005 0 
316 1 0.53 70.00 3.3818 3.3893 0 
317 1 0.43 70.00 15.2565 8.3604 0 
318 1 0.49 70.00 21.3155 7.9385 0 
319 1 0.52 70.00 2.2761 9.0945 0 
320 1 0.49 70.00 11.9572 9.7148 0 
321 1 0.44 70.00 24.5678 5.7515 0 
322 1 0.49 70.00 3.1177 14.3371 0 
323 1 0.42 70.00 26.2985 13.1313 0 
324 1 0.45 70.00 11.8174 3.8931 0 
325 1 0.47 70.00 26.2927 12.2704 0 
326 1 0.46 70.00 22.5513 12.5900 0 
327 1 0.45 70.00 25.7609 7.4387 0 
328 1 0.45 70.00 19.1649 1.5660 0 
329 1 0.51 70.00 17.0746 11.9151 0 
330 1 0.46 70.00 11.8495 10.6011 0 
331 1 0.47 70.00 11.4859 4.1491 0 
332 1 0.49 70.00 2.5982 8.8167 0 
333 1 0.39 70.00 15.5493 2.9798 0 
334 1 0.47 70.00 22.0301 2.3297 0 
335 1 0.48 70.00 2.3579 9.6915 0 
336 1 0.52 70.00 2.0130 10.0491 0 
337 1 0.44 70.00 17.6113 4.9774 0 
338 1 0.48 70.00 24.7877 9.6197 0 
339 1 0.48 70.00 12.3598 11.7823 0 
340 1 0.48 70.00 23.0553 11.0790 0 
341 1 0.47 70.00 17.9909 2.1050 0 
342 1 0.47 70.00 5.4626 7.0812 0 
343 1 0.47 70.00 19.9981 8.4878 0 
344 1 0.48 70.00 9.7608 9.3350 0 
345 1 0.50 70.00 25.7411 3.8884 0 
346 1 0.48 70.00 11.4597 10.1964 0 
347 1 0.45 70.00 22.2910 4.7117 0 
348 1 0.52 70.00 17.2610 3.4025 0 
349 1 0.45 70.00 5.9207 7.4998 0 
350 1 0.43 70.00 3.3394 11.3602 0 
351 1 0.46 70.00 15.6137 7.1662 0 
352 1 0.42 70.00 13.8995 0.5620 0 
353 1 0.49 70.00 26.8491 8.1765 0 
354 1 0.46 70.00 22.9723 12.7166 0 
355 1 0.43 70.00 9.6415 3.2957 0 
356 1 0.47 70.00 22.3770 5.1163 0 
357 1 0.40 70.00 6.8817 6.1432 0 
358 1 0.40 70.00 4.6739 4.2677 0 
359 1 0.46 70.00 17.7866 13.0112 0 
360 1 0.50 70.00 21.5671 6.0007 0 
361 1 0.47 70.00 1.9150 11.6393 0 
362 1 0.46 70.00 7.1266 8.1757 0 
363 1 0.50 70.00 20.6560 8.6172 0 
364 1 0.50 70.00 1.4677 3.5514 0 
365 1 0.49 70.00 6.8769 8.7670 0 
366 1 0.48 70.00 25.0803 3.2514 0 
367 1 0.49 70.00 23.5559 9.2874 0 
368 1 0.44 70.00 3.4383 12.5823 0 
369 1 0.47 70.00 19.3559 4.0904 0 
370 1 0.48 70.00 0.6720 10.4283 0 
371 1 0.45 70.00 0.9300 7.2181 0 
372 1 0.45 70.00 14.9049 12.7307 0 
373 1 0.47 70.00 24.6099 6.8214 0 
374 1 0.53 70.00 20.3542 1.1075 0 
375 1 0.48 70.00 22.9833 1.6764 0 
376 1 0.49 70.00 6.9098 13.7266 0 
377 1 0.40 70.00 12.2837 12.5329 0 
378 1 0.46 70.00 15.2676 1.8088 0 
379 1 0.48 70.00 23.6462 3.9369 0 
380 1 0.44 70.00 1.1306 5.7052 0 
381 1 0.45 70.00 0.8513 5.2579 0 
382 1 0.44 70.00 27.4892 1.3429 0 
383 1 0.49 70.00 3.2690 14.7080 0 
384 1 0.49 70.00 11.8676 7.4470 0 
385 1 0.50 70.00 0.8662 8.8637 0 
386 1 0.51 70.00 6.3102 9.5824 0 
387 1 0.47 70.00 9.3191 14.7449 0 
388 1 0.48 70.00 9.4141 6.4810 0 
389 1 0.52 70.00 16.5050 11.3498 0 
390 1 0.51 70.00 2.3983 2.2452 0 
391 1 0.45 70.00 15.7847 8.3974 0 
392 1 0.49 70.00 21.6392 9.4785 0 
393 1 0.48 70.00 4.0594 12.1806 0 
394 1 0.46 70.00 24.2537 3.1321 0 
395 1 0.47 70.00 17.4566 14.4353 0 
396 1 0.46 70.00 10.5256 7.0852 0 
397 1 0.49 70.00 14.3751 4.2917 0 
398 1 0.46 70.00 12.5533 10.9736 0 
399 1 0.51 70.00 15.7227 6.5779 0 
400 1 0.48 70.00 2.8584 3.3847 0 
401 1 0.47 70.00 16.0173 9.0464 0 
402 1 0.43 70.00 13.6889 12.6594 0 
403 1 0.51 70.00 27.5799 6.8104 0 
404 1 0.48 70.00 21.4142 3.5807 0 
405 1 0.49 70.00 26.1761 11.3814 0 
406 1 0.45 70.00 17.2569 13.7293 0 
407 1 0.46 70.00 19.5675 6.7311 0 
408 1 0.44 70.00 1.4587 8.9235 0 
409 1 0.49 70.00 16.4490 4.8494 0 
410 1 0.46 70.00 18.2390 9.7913 0 
411 1 0.47 70.00 19.1218 8.9224 0 
412 1 0.43 70.00 11.3306 14.2811 0 
413 1 0.50 70.00 7.0101 14.5274 0 
414 1 0.46 70.00 4.0677 3.9156 0 
415 1 0.47 70.00 27.5384 12.2392 0 
416 1 0.54 70.00 9.7736 4.2996 0 
417 1 0.48 70.00 3.3189 2.0707 0 
418 1 0.51 70.00 19.7491 6.6437 0 
419 1 0.46 70.00 16.2912 3.9149 0 
420 1 0.49 70.00 1.5605 1.7736 0 
421 1 0.46 70.00 19.2586 6.2525 0 
422 1 0.44 70.00 9.8231 4.5385 0 
423 1 0.47 70.00 27.0959 3.9871 0 
424 1 0.45 70.00 26.4566 11.7753 0 
425 1 0.44 70.00 20.6108 7.3236 0 
426 1 0.44 70.00 4.9633 7.5056 0 
427 1 0.46 70.00 20.8538 12.2918 0 
428 1 0.45 70.00 23.3634 5.7660 0 
429 1 0.45 70.00 19.4468 4.6540 0 
430 1 0.49 70.00 25.4364 3.6816 0 
431 1 0.45 70.00 17.2154 13.9324 0 
432 1 0.50 70.00 6.8932 7.1056 0 
433 1 0.45 70.00 26.3413 5.0540 0 
434 1 0.43 70.00 9.9659 13.4325 0 
435 1 0.46 70.00 16.5272 13.5063 0 
436 1 0.43 70.00 23.2718 2.6252 0 
437 1 0.49 70.00 16.7353 4.1844 0 
438 1 0.47 70.00 26.0280 1.7729 0 
439 1 0.45 70.00 7.5465 0.7944 0 
440 1 0.49 70.00 18.0417 14.7470 0 
441 1 0.51 70.00 4.5452 14.2069 0 
442 1 0.42 70.00 17.7077 7.3554 0 
443 1 0.47 70.00 16.1685 4.6146 0 
444 1 0.46 70.00 21.9381 6.0326 0 
445 1 0.42 70.00 6.5325 10.4819 0 
446 1 0.46 70.00 26.6163 9.5682 0 
447 1 0.54 70.00 22.2498 6.7001 0 
448 1 0.54 70.00 21.9080 13.6404 0 
449 1 0.47 70.00 19.7585 4.9637 0 
450 1 0.46 70.00 8.9318 9.8764 0 
451 1 0.45 70.00 24.1793 10.0960 0 
452 1 0.46 70.00 14.5218 7.1978 0 
453 1 0.48 70.00 16.1255 13.9494 0 
454 1 0.51 70.00 5.7689 12.4564 0 
455 1 0.50 70.00 3.3113 5.7823 0 
456 1 0.52 70.00 25.8739 3.3863 0 
457 1 0.43 70.00 12.6922 4.1760 0 
458 1 0.44 70.00 26.1869 11.6446 0 
459 1 0.44 70.00 24.9061 1.9472 0 
460 1 0.40 70.00 6.3452 10.5578 0 
461 1 0.45 70.00 11.9943 12.6970 0 
462 1 0.49 70.00 11.3252 8.7194 0 
463 1 0.45 70.00 9.8949 11.0250 0 
464 1 0.44 70.00 23.3193 9.4545 0 
465 1 0.46 70.00 14.1477 6.6312 0 
466 1 0.46 70.00 11.4021 4.3525 0 
467 1 0.51 70.00 19.7766 9.7750 0 
468 1 0.47 70.00 1.6087 0.9776 0 
469 1 0.49 70.00 8.5889 14.0398 0 
470 1 0.48 70.00 6.7942 8.0398 0 
471 1 0.43 70.00 1.0177 11.6970 0 
472 1 0.47 70.00 3.8963 1.6074 0 
473 1 0.50 70.00 3.4747 2.5569 0 
474 1 0.49 70.00 0.7132 4.2205 0 
475 1 0.45 70.00 14.3564 11.9201 0 
476 1 0.46 70.00 24.5860 8.8070 0 
477 1 0.45 70.00 16.0347 12.2708 0 
478 1 0.41 70.00 7.2010 6.8731 0 
479 1 0.49 70.00 11.8922 11.2861 0 
480 1 0.46 70.00 9.4709 14.0538 0 
481 1 0.44 70.00 16.0265 4.8512 0 
482 1 0.43 70.00 3.0126 11.4489 0 
483 1 0.46 70.00 17.2524 12.5251 0 
484 1 0.47 70.00 14.8967 10.6302 0 
485 1 0.48 70.00 26.4387 9.9051 0 
486 1 0.47 70.00 2.0109 2.0005 0 
487 1 0.47 70.00 16.1217 3.1292 0 
488 1 0.51 70.00 23.2741 8.4132 0 
489 1 0.44 70.00 13.9146 6.7527 0 
490 1 0.41 70.00 5.3841 10.5394 0 
491 1 0.51 70.00 26.7425 7.2348 0 
492 1 0.44 70.00 5.5810 8.3820 0 
493 1 0.46 70.00 2.8569 6.5809 0 
494 1 0.44 70.00 11.0880 13.0714 0 
495 1 0.48 70.00 18.7243 11.9529 0 
496 1 0.49 70.00 4.4073 2.6533 0 
497 1 0.47 70.00 16.0509 4.3659 0 
498 1 0.40 70.00 6.3322 9.3054 0 
499 1 0.48 70.00 16.8532 10.3708 0 
500 1 0.51 70.00 27.6482 0.7374 0 
501 1 0.51 70.00 9.5191 8.0702 0 
502 1 0.48 70.00 5.2136 9.8079 0 
503 1 0.46 70.00 24.1657 9.8753 0 
504 1 0.46 70.00 20.8205 11.0069 0 
505 1 0.48 70.00 10.4064 7.4541 0 
506 1 0.47 70.00 26.7071 10.6326 0 
507 1 0.47 70.00 25.3614 5.8833 0 
508 1 0.46 70.00 6.5169 4.2701 0 
509 1 0.48 70.00 4.0717 14.4497 0 
510 1 0.46 70.00 4.1605 14.6335 0 
511 1 0.48 70.00 25.6068 3.2146 0 
512 1 0.45 70.00 3.0695 1.9879 0 
513 1 0.48 70.00 4.1839 13.2734 0 
514 1 0.51 70.00 26.2892 2.3417 0 
515 1 0.46 70.00 13.5413 9.4669 0 
516 1 0.47 70.00 2.6401 10.9206 0 
517 1 0.52 70.00 23.6654 3.6409 0 
518 1 0.44 70.00 13.2029 11.6613 0 
519 1 0.52 70.00 21.8346 10.7118 0 
520 1 0.47 70.00 16.1402 2.0732 0 
521 1 0.41 70.00 27.2257 8.3035 0 
522 1 0.45 70.00 19.7601 10.5431 0 
523 1 0.50 70.00 5.1333 8.0251 0 
524 1 0.45 70.00 16.3088 8.7929 0 
525 1 0.52 70.00 14.2174 9.6138 0 
526 1 0.46 70.00 22.0713 9.1648 0 
527 1 0.48 70.00 10.3694 2.0118 0 
528 1 0.47 70.00 18.7818 10.1502 0 
529 1 0.51 70.00 8.9068 4.1669 0 
530 1 0.48 70.00 27.5752 9.4056 0 
531 1 0.47 70.00 26.7027 13.2277 0 
532 1 0.47 70.00 11.4966 8.8935 0 
533 1 0.44 70.00 25.4452 6.6652 0 
534 1 0.52 70.00 19.7919 9.2501 0 
535 1 0.45 70.00 27.4843 8.7821 0 
536 1 0.50 70.00 11.7971 5.3837 0 
537 1 0.43 70.00 18.1477 10.1321 0 
538 1 0.43 70.00 5.3371 9.3731 0 
539 1 0.45 70.00 16.1293 6.0504 0 
540 1 0.46 70.00 6.9149 11.6958 0 
541 1 0.46 70.00 1.3265 8.7542 0 
542 1 0.50 70.00 7.9483 1.6909 0 
543 1 0.50 70.00 26.7153 1.9791 0 
544 1 0.52 70.00 13.4790 8.9925 0 
545 1 0.45 70.00 16.2810 12.9434 0 
546 1 0.52 70.00 5.4288 12.7052 0 
547 1 0.47 70.00 23.2065 7.7690 0 
548 1 0.46 70.00 22.6741 4.2363 0 
549 1 0.48 70.00 5.6061 2.0463 0 
550 1 0.49 70.00 24.8358 5.0033 0 
551 1 0.46 70.00 16.3167 6.6417 0 
552 1 0.42 70.00 11.5053 11.2530 0 
553 1 0.48 70.00 4.7172 7.9962 0 
554 1 0.50 70.00 9.9574 8.5862 0 
555 1 0.40 70.00 24.5756 3.2140 0 
556 1 0.50 70.00 25.7550 14.7310 0 
557 1 0.48 70.00 7.9290 4.2859 0 
558 1 0.44 70.00 13.4580 13.3492 0 
559 1 0.47 70.00 2.6616 2.3396 0 
560 1 0.50 70.00 18.6640 13.6679 0 
561 1 0.45 70.00 3.9777 11.3120 0 
562 1 0.43 70.00 17.1523 4.0729 0 
563 1 0.42 70.00 7.3971 12.5866 0 
564 1 0.44 70.00 23.7953 5.2163 0 
565 1 0.46 70.00 10.5130 10.4254 0 
566 1 0.47 70.00 9.8373 6.4858 0 
567 1 0.49 70.00 16.4517 2.0719 0 
568 1 0.46 70.00 27.1135 4.5382 0 
569 1 0.46 70.00 17.2713 9.7991 0 
570 1 0.52 70.00 22.0471 7.6022 0 
571 1 0.47 70.00 11.5026 2.7808 0 
572 1 0.45 70.00 15.5325 2.3366 0 
573 1 0.48 70.00 8.7470 5.9288 0 
574 1 0.47 70.00 16.9910 12.2529 0 
575 1 0.47 70.00 22.3771 8.5218 0 
576 1 0.46 70.00 4.4677 5.6395 0 
577 1 0.50 70.00 18.9228 8.0655 0 
578 1 0.51 70.00 13.9254 8.1290 0 
579 1 0.43 70.00 20.1826 8.2013 0 
580 1 0.48 70.00 14.3575 9.3528 0 
581 1 0.47 70.00 11.8084 12.3987 0 
582 1 0.48 70.00 21.2393 13.3766 0 
583 1 0.51 70.00 11.0072 5.6673 0 
584 1 0.54 70.00 18.6601 6.9193 0 
585 1 0.47 70.00 9.8094 9.9697 0 
586 1 0.41 70.00 10.5830 0.6413 0 
587 1 0.50 70.00 18.9041 11.5623 0 
588 1 0.47 70.00 20.4221 8.2673 0 
589 1 0.52 70.00 10.8272 3.9809 0 
590 1 0.41 70.00 0.5629 2.6631 0 
591 1 0.46 70.00 10.4094 5.2913 0 
592 1 0.52 70.00 2.5757 5.6363 0 
593 1 0.43 70.00 20.3604 12.8472 0 
594 1 0.49 70.00 1.8322 7.3336 0 
595 1 0.46 70.00 15.3156 5.1127 0 
596 1 0.49 70.00 23.5522 9.4982 0 
597 1 0.47 70.00 11.1958 10.3657 0 
598 1 0.48 70.00 11.9325 8.6612 0 
599 1 0.42 70.00 6.4800 5.5692 0 
600 1 0.46 70.00 13.4470 10.1617 0 
601 1 0.49 70.00 23.8275 12.3119 0 
602 1 0.53 70.00 17.8827 13.8326 0 
603 1 0.48 70.00 3.9628 4.4329 0 
604 1 0.49 70.00 21.1467 4.9545 0 
605 1 0.49 70.00 8.5407 4.6996 0 
606 1 0.50 70.00 0.7806 13.6660 0 
607 1 0.51 70.00 18.5480 0.8528 0 
608 1 0.45 70.00 24.5553 1.4433 0 
609 1 0.50 70.00 19.2356 1.3410 0 
610 1 0.46 70.00 7.8443 5.9736 0 
611 1 0.45 70.00 10.9466 3.6427 0 
612 1 0.49 70.00 20.0711 4.7983 0 
613 1 0.47 70.00 1.6631 1.5471 0 
614 1 0.47 70.00 3.2760 9.3103 0 
615 1 0.47 70.00 23.1966 9.7018 0 
616 1 0.52 70.00 15.1351 14.6817 0 
617 1 0.48 70.00 27.0240 2.8964 0 
618 1 0.45 70.00 16.5448 12.8773 0 
619 1 0.48 70.00 12.8988 11.8006 0 
620 1 0.46 70.00 0.9236 7.8765 0 
621 1 0.53 70.00 16.1359 6.3269 0 
622 1 0.45 70.00 16.6984 1.3134 0 
623 1 0.47 70.00 18.2622 13.9203 0 
624 1 0.51 70.00 20.8164 3.1865 0 
625 1 0.49 70.00 14.8545 3.9384 0 
626 1 0.43 70.00 19.5704 7.0018 0 
627 1 0.48 70.00 1.7348 7.8318 0 
628 1 0.45 70.00 7.2759 1.9118 0 
629 1 0.44 70.00 0.9313 8.5951 0 
630 1 0.43 70.00 18.8152 5.2779 0 
631 1 0.48 70.00 11.3783 7.2742 0 
632 1 0.54 70.00 4.1508 7.3930 0 
633 1 0.46 70.00 6.5445 11.8568 0 
634 1 0.43 70.00 23.1111 9.9541 0 
635 1 0.50 70.00 18.8356 7.1948 0 
636 1 0.43 70.00 26.8982 13.8456 0 
637 1 0.44 70.00 26.9181 10.2215 0 
638 1 0.44 70.00 5.3246 11.3584 0 
639 1 0.50 70.00 25.1168 13.3007 0 
640 1 0.49 70.00 4.8057 3.3281 0 
641 1 0.49 70.00 12.0667 9.4960 0 
642 1 0.46 70.00 17.8720 1.4418 0 
643 1 0.46 70.00 19.5108 14.1708 0 
644 1 0.47 70.00 27.5904 5.3812 0 
645 1 0.47 70.00 15.7470 10.6373 0 
646 1 0.53 70.00 19.8442 3.6943 0 
647 1 0.47 70.00 17.7852 1.7708 0 
648 1 0.51 70.00 7.6921 11.1875 0 
649 1 0.47 70.00 20.2119 7.8494 0 
650 1 0.40 70.00 22.4371 1.7434 0 
651 1 0.47 70.00 4.2180 11.9341 0 
652 1 0.47 70.00 3.7201 1.9047 0 
653 1 0.46 70.00 4.8760 12.6605 0 
654 1 0.51 70.00 2.9604 0.5107 0 
655 1 0.47 70.00 18.7706 3.3381 0 
656 1 0.47 70.00 9.9132 2.6885 0 
657 1 0.51 70.00 13.1017 3.9686 0 
658 1 0.48 70.00 22.1617 10.8718 0 
659 1 0.45 70.00 17.5832 14.1314 0 
660 1 0.53 70.00 23.0809 11.7263 0 
661 1 0.52 70.00 16.9242 7.2450 0 
662 1 0.43 70.00 24.7656 2.9514 0 
663 1 0.44 70.00 23.5869 4.4132 0 
664 1 0.50 70.00 18.5769 9.3092 0 
665 1 0.46 70.00 3.5133 7.3176 0 
666 1 0.50 70.00 18.9911 2.5974 0 
667 1 0.46 70.00 3.7646 4.5052 0 
668 1 0.46 70.00 5.9578 3.7589 0 
669 1 0.46 70.00 2.9567 13.6457 0 
670 1 0.46 70.00 9.3733 9.3469 0 
671 1 0.49 70.00 20.7314 2.1130 0 
672 1 0.44 70.00 5.1436 14.3656 0 
673 1 0.45 70.00 11.6112 7.6509 0 
674 1 0.49 70.00 20.6159 12.6128 0 
675 1 0.45 70.00 19.1296 12.2067 0 
676 1 0.49 70.00 10.0111 8.1068 0 
677 1 0.49 70.00 17.9195 5.7972 0 
678 1 0.46 70.00 2.3624 2.5199 0 
679 1 0.45 70.00 7.5771 14.3566 0 
680 1 0.52 70.00 7.3595 7.0813 0 
681 1 0.44 70.00 15.5808 11.6462 0 
682 1 0.44 70.00 15.4264 12.2320 0 
683 1 0.49 70.00 12.1990 13.9637 0 
684 1 0.44 70.00 12.4823 13.1657 0 
685 1 0.46 70.00 3.3324 13.0307 0 
686 1 0.44 70.00 10.6087 11.0827 0 
687 1 0.49 70.00 25.4877 2.7610 0 
688 1 0.49 70.00 16.4971 2.8471 0 
689 1 0.49 70.00 14.2448 3.7011 0 
690 1 0.47 70.00 22.2542 0.5224 0 
691 1 0.48 70.00 18.4629 10.5327 0 
692 1 0.47 70.00 7.7756 4.7896 0 
693 1 0.50 70.00 5.8584 4.8295 0 
694 1 0.48 70.00 18.9282 10.4803 0 
695 1 0.49 70.00 8.3722 9.9624 0 
696 1 0.47 70.00 15.0824 6.7257 0 
697 1 0.43 70.00 10.5807 12.2742 0 
698 1 0.49 70.00 5.7051 11.2823 0 
699 1 0.45 70.00 9.2752 12.8986 0 
700 1 0.44 70.00 23.0678 12.4045 0 
701 1 0.45 70.00 25.9092 8.5547 0 
702 1 0.48 70.00 21.4235 14.6944 0 
703 1 0.49 70.00 27.4337 13.4508 0 
704 1 0.51 70.00 13.4429 2.7631 0 
705 1 0.44 70.00 9.3347 10.3995 0 
706 1 0.46 70.00 10.9218 3.0597 0 
707 1 0.50 70.00 11.0328 13.4944 0 
708 1 0.47 70.00 11.4473 12.1905 0 
709 1 0.51 70.00 5.3152 8.9084 0 
710 1 0.43 70.00 11.5764 10.9583 0 
711 1 0.46 70.00 15.0548 10.2951 0 
712 1 0.48 70.00 10.4980 2.2490 0 
713 1 0.50 70.00 24.6831 14.5627 0 
714 1 0.53 70.00 13.3566 12.9515 0 
715 1 0.44 70.00 3.9821 8.4047 0 
716 1 0.41 70.00 4.0742 12.9573 0 
717 1 0.48 70.00 10.6103 13.4020 0 
718 1 0.49 70.00 0.9996 3.4537 0 
719 1 0.47 70.00 6.9539 1.9733 0 
720 1 0.44 70.00 13.3146 4.9528 0 
721 1 0.43 70.00 19.1116 3.2580 0 
722 1 0.46 70.00 8.0684 2.9910 0 
723 1 0.48 70.00 15.2980 11.9324 0 
724 1 0.48 70.00 23.9313 4.9425 0 
725 1 0.48 70.00 10.5661 4.0191 0 
726 1 0.46 70.00 13.8813 2.7465 0 
727 1 0.50 70.00 5.5567 9.3404 0 
728 1 0.44 70.00 8.0265 5.3656 0 
729 1 0.46 70.00 24.5372 13.2482 0 
730 1 0.42 70.00 24.9849 1.0389 0 
731 1 0.47 70.00 13.1761 1.7302 0 
732 1 0.46 70.00 7.9209 9.0982 0 
733 1 0.46 70.00 27.7456 8.3678 0 
734 1 0.45 70.00 8.0521 2.5526 0 
735 1 0.51 70.00 23.2020 14.3008 0 
736 1 0.45 70.00 8.8823 2.6642 0 
737 1 0.48 70.00 23.3577 13.1322 0 
738 1 0.44 70.00 3.8896 3.7418 0 
739 1 0.42 70.00 22.1131 2.9259 0 
740 1 0.48 70.00 21.8517 5.2150 0 
741 1 0.49 70.00 21.0693 9.4045 0 
742 1 0.51 70.00 0.6493 1.7622 0 
743 1 0.48 70.00 24.4619 12.4755 0 
744 1 0.46 70.00 15.3944 7.0876 0 
745 1 0.48 70.00 2.8830 9.0919 0 
746 1 0.46 70.00 10.7191 9.2614 0 
747 1 0.51 70.00 5.1738 0.9872 0 
748 1 0.48 70.00 19.1211 11.7757 0 
749 1 0.49 70.00 26.9108 3.3318 0 
750 1 0.45 70.00 22.2441 12.4200 0 
751 1 0.47 70.00 17.9890 7.7924 0 
752 1 0.48 70.00 23.8077 5.5090 0 
753 1 0.47 70.00 14.7345 13.5434 0 
754 1 0.48 70.00 23.6724 3.0516 0 
755 1 0.49 70.00 9.1681 11.4301 0 
756 1 0.51 70.00 3.4224 4.5287 0 
757 1 0.51 70.00 25.5499 4.2131 0 
758 1 0.44 70.00 16.5066 1.3710 0 
759 1 0.50 70.00 7.6035 8.5063 0 
760 1 0.44 70.00 27.1943 14.4446 0 
761 1 0.51 70.00 8.9882 4.5429 0 
762 1 0.42 70.00 14.8184 9.3598 0 
763 1 0.46 70.00 3.3416 7.8086 0 
764 1 0.47 70.00 24.4144 1.7618 0 
765 1 0.46 70.00 10.9486 1.7998 0 
766 1 0.44 70.00 20.9138 4.8582 0 
767 1 0.44 70.00 9.7372 3.4928 0 
768 1 0.44 70.00 1.9869 10.7790 0 
769 1 0.47 70.00 11.5094 5.5373 0 
770 1 0.46 70.00 27.5532 4.7898 0 
771 1 0.51 70.00 24.2273 5.5804 0 
772 1 0.50 70.00 16.4275 11.0789 0 
773 1 0.45 70.00 6.2198 12.4255 0 
774 1 0.42 70.00 11.4061 5.7849 0 
775 1 0.50 70.00 1.6769 12.0570 0 
776 1 0.51 70.00 17.0253 3.5338 0 
777 1 0.46 70.00 23.6923 0.8653 0 
778 1 0.50 70.00 7.4347 3.8256 0 
779 1 0.48 70.00 16.0921 10.6570 0 
780 1 0.49 70.00 16.3306 0.5172 0 
781 1 0.46 70.00 26.7775 13.6053 0 
782 1 0.45 70.00 14.8729 10.1881 0 
783 1 0.46 70.00 10.8968 12.4713 0 
784 1 0.37 70.00 19.8506 14.4867 0 
785 1 0.50 70.00 0.6702 6.3295 0 
786 1 0.44 70.00 16.8378 5.8401 0 
787 1 0.47 70.00 24.6090 12.7981 0 
788 1 0.49 70.00 23.1150 9.0961 0 
789 1 0.46 70.00 6.8903 0.5135 0 
790 1 0.44 70.00 10.9378 10.7076 0 
791 1 0.50 70.00 8.2153 10.2488 0 
792 1 0.43 70.00 6.6635 6.7894 0 
793 1 0.49 70.00 27.1849 4.3137 0 
794 1 0.44 70.00 2.9963 14.7723 0 
795 1 0.40 70.00 15.0387 7.0140 0 
796 1 0.44 70.00 15.6447 11.9566 0 
797 1 0.49 70.00 7.4910 11.0346 0 
798 1 0.48 70.00 9.7186 8.4437 0 
799 1 0.44 70.00 15.4603 1.5839 0 
800 1 0.51 70.00 14.7962 2.7886 0 
801 1 0.45 70.00 2.5181 0.8458 0 
802 1 0.45 70.00 11.2851 10.7358 0 
803 1 0.48 70.00 22.7922 6.0161 0 
804 1 0.48 70.00 7.4566 6.1540 0 
805 1 0.44 70.00 18.1049 7.4831 0 
806 1 0.47 70.00 13.0693 10.2471 0 
807 1 0.41 70.00 21.2947 9.5131 0 
808 1 0.48 70.00 12.2003 0.8405 0 
809 1 0.45 70.00 21.1398 13.9655 0 
810 1 0.41 70.00 7.5800 6.7589 0 
811 1 0.47 70.00 8.2576 4.9134 0 
812 1 0.46 70.00 15.3889 9.0553 0 
813 1 0.48 70.00 6.0993 10.8584 0 
814 1 0.46 70.00 26.5711 5.6042 0 
815 1 0.47 70.00 5.8556 14.6777 0 
816 1 0.48 70.00 10.0944 11.1690 0 
817 1 0.48 70.00 20.2080 1.9504 0 
818 1 0.45 70.00 2.4262 12.8643 0 
819 1 0.44 70.00 26.5459 8.6973 0 
820 1 0.47 70.00 10.0644 10.5563 0 
821 1 0.45 70.00 26.3480 1.1318 0 
822 1 0.41 70.00 2.5444 0.5548 0 
823 1 0.45 70.00 2.3996 7.7514 0 
824 1 0.44 70.00 27.3444 6.6843 0 
825 1 0.47 70.00 9.0420 13.9899 0 
826 1 0.47 70.00 13.6707 8.6460 0 
827 1 0.49 70.00 13.6059 4.3734 0 
828 1 0.45 70.00 15.1357 7.9094 0 
829 1 0.46 70.00 18.6479 5.6240 0 
830 1 0.47 70.00 10.2798 3.0909 0 
831 1 0.50 70.00 20.1228 7.4148 0 
832 1 0.51 70.00 23.6336 6.9832 0 
833 1 0.47 70.00 4.5608 3.0737 0 
834 1 0.45 70.00 1.8285 2.8261 0 
835 1 0.49 70.00 20.6044 0.5540 0 
836 1 0.49 70.00 3.6732 4.0158 0 
837 1 0.43 70.00 23.5267 4.7853 0 
838 1 0.51 70.00 20.6892 4.9236 0 
839 1 0.45 70.00 19.3305 12.0732 0 
840 1 0.46 70.00 1.7362 13.9583 0 
