# LAMMPS data file for rigid bodies

2940 atoms

2 atom types

0.0 	 28.0 	 xlo xhi 
0.0 	 15.0 	 ylo yhi 
-1.0 	 1.0 	 zlo zhi 

Atoms

1 1 0.49 70.00 8.1273 4.4252 0 
2 1 0.48 70.00 1.2876 1.0512 0 
3 1 0.50 70.00 23.4351 0.8721 0 
4 1 0.51 70.00 21.7303 13.0329 0 
5 1 0.46 70.00 17.5672 14.3320 0 
6 1 0.41 70.00 6.2113 12.6342 0 
7 1 0.51 70.00 4.2760 6.5810 0 
8 1 0.42 70.00 15.9760 6.1765 0 
9 1 0.46 70.00 26.5894 12.6643 0 
10 1 0.45 70.00 18.4959 5.6957 0 
11 1 0.51 70.00 9.4584 13.3168 0 
12 1 0.49 70.00 4.5530 8.6140 0 
13 1 0.46 70.00 4.1964 5.5845 0 
14 1 0.47 70.00 21.2597 1.7675 0 
15 1 0.52 70.00 9.8330 3.2861 0 
16 1 0.48 70.00 20.4886 6.5588 0 
17 1 0.47 70.00 13.2277 3.0501 0 
18 1 0.44 70.00 24.7887 8.1673 0 
19 1 0.44 70.00 10.3913 6.2998 0 
20 1 0.45 70.00 8.8957 6.2971 0 
21 1 0.47 70.00 23.4928 14.7455 0 
22 1 0.46 70.00 18.0088 13.2720 0 
23 1 0.49 70.00 6.7147 1.7883 0 
24 1 0.47 70.00 21.4020 6.6730 0 
25 1 0.49 70.00 17.2246 3.9478 0 
26 1 0.53 70.00 16.6813 0.9332 0 
27 1 0.50 70.00 17.4698 12.8848 0 
28 1 0.46 70.00 8.3359 5.0683 0 
29 1 0.50 70.00 3.5486 0.7897 0 
30 1 0.47 70.00 24.3113 7.1268 0 
31 1 0.45 70.00 26.8544 7.2052 0 
32 1 0.48 70.00 21.9303 2.1840 0 
33 1 0.55 70.00 27.1956 7.5559 0 
34 1 0.41 70.00 17.9576 3.8184 0 
35 1 0.47 70.00 24.4156 12.3594 0 
36 1 0.40 70.00 20.4824 11.4837 0 
37 1 0.50 70.00 22.9614 3.9211 0 
38 1 0.44 70.00 7.0830 5.9516 0 
39 1 0.49 70.00 10.8303 1.8580 0 
40 1 0.49 70.00 25.6574 2.6425 0 
41 1 0.49 70.00 26.8044 8.8549 0 
42 1 0.49 70.00 1.9960 9.2877 0 
43 1 0.45 70.00 17.5956 6.9574 0 
44 1 0.39 70.00 18.9399 7.0554 0 
45 1 0.45 70.00 9.7970 1.1758 0 
46 1 0.46 70.00 8.2084 8.0978 0 
47 1 0.41 70.00 21.1742 10.8530 0 
48 1 0.49 70.00 24.1645 4.5210 0 
49 1 0.44 70.00 11.5887 14.4050 0 
50 1 0.49 70.00 4.0028 12.4252 0 
51 1 0.44 70.00 26.5474 4.0047 0 
52 1 0.47 70.00 3.8115 11.5338 0 
53 1 0.46 70.00 1.3072 8.2013 0 
54 1 0.45 70.00 25.9380 7.4471 0 
55 1 0.43 70.00 6.4088 2.1117 0 
56 1 0.45 70.00 19.5677 6.2520 0 
57 1 0.45 70.00 24.1140 4.1142 0 
58 1 0.46 70.00 20.8349 7.9315 0 
59 1 0.51 70.00 19.2164 3.6153 0 
60 1 0.51 70.00 18.2594 6.3263 0 
61 1 0.49 70.00 25.8047 9.2972 0 
62 1 0.47 70.00 16.3666 2.5628 0 
63 1 0.47 70.00 15.4796 0.6239 0 
64 1 0.46 70.00 0.5417 14.1501 0 
65 1 0.51 70.00 16.2150 10.1792 0 
66 1 0.52 70.00 8.1742 3.9668 0 
67 1 0.51 70.00 26.4628 4.8489 0 
68 1 0.50 70.00 21.9966 9.2008 0 
69 1 0.51 70.00 23.0767 1.6383 0 
70 1 0.44 70.00 21.5932 14.0008 0 
71 1 0.45 70.00 27.0823 12.0260 0 
72 1 0.49 70.00 23.2329 7.7119 0 
73 1 0.47 70.00 5.8361 10.5056 0 
74 1 0.37 70.00 10.8664 12.8244 0 
75 1 0.50 70.00 12.0373 3.8240 0 
76 1 0.46 70.00 0.5813 13.9043 0 
77 1 0.49 70.00 12.1092 10.6011 0 
78 1 0.43 70.00 0.8243 2.5260 0 
79 1 0.48 70.00 18.8533 6.2301 0 
80 1 0.47 70.00 12.1314 7.5937 0 
81 1 0.49 70.00 13.8996 6.2850 0 
82 1 0.48 70.00 25.1943 0.7489 0 
83 1 0.45 70.00 3.3097 1.5083 0 
84 1 0.46 70.00 24.4335 13.1577 0 
85 1 0.42 70.00 22.0174 7.9666 0 
86 1 0.46 70.00 13.8576 1.4954 0 
87 1 0.46 70.00 10.1801 2.9541 0 
88 1 0.48 70.00 16.4821 4.4623 0 
89 1 0.41 70.00 5.8208 5.1981 0 
90 1 0.44 70.00 2.2261 3.8018 0 
91 1 0.51 70.00 10.2242 6.4589 0 
92 1 0.45 70.00 21.6741 3.3571 0 
93 1 0.50 70.00 2.1356 5.5357 0 
94 1 0.46 70.00 6.3839 8.5552 0 
95 1 0.43 70.00 14.4959 10.7956 0 
96 1 0.47 70.00 0.9481 11.7772 0 
97 1 0.42 70.00 6.9763 12.2742 0 
98 1 0.47 70.00 0.5638 1.2701 0 
99 1 0.48 70.00 4.3234 8.0458 0 
100 1 0.49 70.00 6.6599 8.8561 0 
101 1 0.46 70.00 12.8540 14.6354 0 
102 1 0.44 70.00 7.8805 6.5030 0 
103 1 0.46 70.00 2.4012 9.5321 0 
104 1 0.45 70.00 24.0223 4.9029 0 
105 1 0.47 70.00 18.4178 10.7528 0 
106 1 0.51 70.00 18.5429 14.0871 0 
107 1 0.45 70.00 4.3351 14.0676 0 
108 1 0.46 70.00 24.5010 11.8144 0 
109 1 0.51 70.00 18.9318 13.2890 0 
110 1 0.44 70.00 10.7951 6.8020 0 
111 1 0.46 70.00 3.7326 7.3834 0 
112 1 0.46 70.00 5.6801 12.2494 0 
113 1 0.46 70.00 24.3061 5.4955 0 
114 1 0.46 70.00 9.4554 9.0594 0 
115 1 0.41 70.00 16.1363 4.5912 0 
116 1 0.48 70.00 3.3415 1.9028 0 
117 1 0.48 70.00 0.5703 12.8184 0 
118 1 0.45 70.00 9.3058 0.8347 0 
119 1 0.48 70.00 1.9323 8.5774 0 
120 1 0.46 70.00 10.4546 7.3065 0 
121 1 0.49 70.00 25.9218 3.5941 0 
122 1 0.48 70.00 3.0764 8.1101 0 
123 1 0.47 70.00 2.5427 2.6969 0 
124 1 0.40 70.00 9.8988 7.2081 0 
125 1 0.49 70.00 6.0719 2.2573 0 
126 1 0.49 70.00 24.0771 8.6063 0 
127 1 0.48 70.00 21.6061 2.6893 0 
128 1 0.50 70.00 10.6473 7.0136 0 
129 1 0.46 70.00 26.5682 10.9624 0 
130 1 0.46 70.00 22.2723 5.8928 0 
131 1 0.47 70.00 14.4400 7.6378 0 
132 1 0.47 70.00 15.5323 9.1488 0 
133 1 0.49 70.00 6.5878 11.5425 0 
134 1 0.42 70.00 25.4246 3.0906 0 
135 1 0.46 70.00 10.2168 13.5896 0 
136 1 0.45 70.00 13.8869 12.8967 0 
137 1 0.50 70.00 11.5574 7.5318 0 
138 1 0.46 70.00 20.1017 11.7882 0 
139 1 0.41 70.00 2.5707 5.9712 0 
140 1 0.52 70.00 19.3663 6.4660 0 
141 1 0.47 70.00 4.5139 10.8092 0 
142 1 0.44 70.00 5.6332 6.2000 0 
143 1 0.48 70.00 10.8242 14.1757 0 
144 1 0.48 70.00 16.3917 7.1993 0 
145 1 0.49 70.00 3.6522 13.2187 0 
146 1 0.48 70.00 11.6966 5.3628 0 
147 1 0.49 70.00 8.4484 3.7755 0 
148 1 0.49 70.00 17.8418 4.6216 0 
149 1 0.46 70.00 15.3127 1.5574 0 
150 1 0.48 70.00 17.5454 3.8116 0 
151 1 0.49 70.00 23.9538 5.1006 0 
152 1 0.52 70.00 22.6479 8.6341 0 
153 1 0.45 70.00 11.5102 1.0405 0 
154 1 0.46 70.00 20.9894 13.0206 0 
155 1 0.50 70.00 15.0267 9.2885 0 
156 1 0.50 70.00 10.6956 9.1607 0 
157 1 0.47 70.00 16.7423 3.7666 0 
158 1 0.51 70.00 7.5266 7.5441 0 
159 1 0.47 70.00 15.2111 3.6599 0 
160 1 0.49 70.00 18.5442 6.3740 0 
161 1 0.47 70.00 19.8012 12.9738 0 
162 1 0.44 70.00 8.4289 1.4414 0 
163 1 0.42 70.00 22.1371 8.5104 0 
164 1 0.48 70.00 9.4633 9.5236 0 
165 1 0.49 70.00 7.0324 9.0657 0 
166 1 0.43 70.00 10.3566 10.0198 0 
167 1 0.48 70.00 24.3443 0.6671 0 
168 1 0.50 70.00 7.6263 14.6624 0 
169 1 0.49 70.00 26.5039 3.7494 0 
170 1 0.46 70.00 25.5673 6.9714 0 
171 1 0.42 70.00 16.8627 1.1240 0 
172 1 0.41 70.00 25.1915 0.5003 0 
173 1 0.45 70.00 27.5056 8.7172 0 
174 1 0.44 70.00 15.6054 3.1370 0 
175 1 0.50 70.00 23.7410 13.7004 0 
176 1 0.48 70.00 21.7051 6.6007 0 
177 1 0.45 70.00 6.3345 4.2273 0 
178 1 0.50 70.00 26.1273 6.9402 0 
179 1 0.44 70.00 24.6188 4.8177 0 
180 1 0.49 70.00 15.8614 2.3097 0 
181 1 0.45 70.00 12.7720 5.7411 0 
182 1 0.43 70.00 10.7872 7.4638 0 
183 1 0.55 70.00 27.5021 3.6447 0 
184 1 0.47 70.00 15.1412 6.9932 0 
185 1 0.42 70.00 21.0629 14.7321 0 
186 1 0.46 70.00 1.0190 14.4753 0 
187 1 0.50 70.00 23.2326 4.8605 0 
188 1 0.52 70.00 22.5767 2.8937 0 
189 1 0.50 70.00 5.0633 3.0953 0 
190 1 0.48 70.00 1.5096 2.6864 0 
191 1 0.44 70.00 19.7192 12.2463 0 
192 1 0.56 70.00 9.0195 4.8674 0 
193 1 0.48 70.00 11.5319 3.8371 0 
194 1 0.47 70.00 11.7926 2.1738 0 
195 1 0.47 70.00 11.9761 13.0591 0 
196 1 0.47 70.00 1.0863 4.3731 0 
197 1 0.44 70.00 5.2942 9.6221 0 
198 1 0.47 70.00 12.7601 7.9273 0 
199 1 0.43 70.00 12.3705 12.0020 0 
200 1 0.47 70.00 24.0458 10.1181 0 
201 1 0.45 70.00 16.6534 4.7616 0 
202 1 0.48 70.00 1.2768 13.4478 0 
203 1 0.49 70.00 4.9223 7.8902 0 
204 1 0.48 70.00 8.5962 7.6878 0 
205 1 0.44 70.00 22.8725 3.5148 0 
206 1 0.39 70.00 3.6575 9.2174 0 
207 1 0.43 70.00 3.8493 12.6338 0 
208 1 0.47 70.00 11.2572 1.2482 0 
209 1 0.49 70.00 16.7411 9.0049 0 
210 1 0.50 70.00 22.3801 1.5709 0 
211 1 0.45 70.00 1.5004 11.0285 0 
212 1 0.52 70.00 4.6791 0.6999 0 
213 1 0.44 70.00 27.1430 13.6359 0 
214 1 0.50 70.00 16.6495 10.8333 0 
215 1 0.46 70.00 23.6824 1.7704 0 
216 1 0.43 70.00 17.9514 5.9030 0 
217 1 0.50 70.00 17.6979 1.6079 0 
218 1 0.48 70.00 4.6703 5.2242 0 
219 1 0.50 70.00 2.0578 6.1281 0 
220 1 0.43 70.00 8.6957 8.1815 0 
221 1 0.47 70.00 19.1304 6.8327 0 
222 1 0.48 70.00 15.3899 9.4824 0 
223 1 0.50 70.00 6.8618 10.5665 0 
224 1 0.45 70.00 18.2483 10.5916 0 
225 1 0.49 70.00 2.3013 8.7534 0 
226 1 0.49 70.00 21.5446 5.9441 0 
227 1 0.47 70.00 20.2582 5.4426 0 
228 1 0.48 70.00 18.6614 4.8115 0 
229 1 0.49 70.00 10.7083 4.9283 0 
230 1 0.49 70.00 6.1689 4.0220 0 
231 1 0.46 70.00 24.1484 0.9890 0 
232 1 0.46 70.00 7.4512 12.7602 0 
233 1 0.51 70.00 15.8788 6.5526 0 
234 1 0.52 70.00 10.3387 7.1162 0 
235 1 0.43 70.00 13.8664 4.9404 0 
236 1 0.48 70.00 6.2026 8.7602 0 
237 1 0.45 70.00 10.2360 10.6494 0 
238 1 0.46 70.00 17.8150 11.2978 0 
239 1 0.47 70.00 8.8028 6.7948 0 
240 1 0.49 70.00 23.6626 14.0937 0 
241 1 0.44 70.00 26.2678 13.2821 0 
242 1 0.46 70.00 13.8268 8.2334 0 
243 1 0.45 70.00 25.2641 11.2750 0 
244 1 0.44 70.00 27.5174 2.5539 0 
245 1 0.44 70.00 9.4899 1.7436 0 
246 1 0.50 70.00 27.3790 5.7096 0 
247 1 0.51 70.00 25.4982 13.1219 0 
248 1 0.41 70.00 4.9945 10.5941 0 
249 1 0.47 70.00 12.3355 1.5057 0 
250 1 0.48 70.00 6.9712 5.2002 0 
251 1 0.45 70.00 0.9020 13.8932 0 
252 1 0.41 70.00 6.4080 14.2932 0 
253 1 0.44 70.00 6.8722 11.1376 0 
254 1 0.45 70.00 21.7930 10.7468 0 
255 1 0.52 70.00 20.0877 14.5527 0 
256 1 0.48 70.00 9.2438 9.0628 0 
257 1 0.51 70.00 7.6983 7.8345 0 
258 1 0.45 70.00 21.3045 11.4967 0 
259 1 0.45 70.00 24.8025 6.3532 0 
260 1 0.46 70.00 3.6754 2.0883 0 
261 1 0.44 70.00 26.7237 5.6208 0 
262 1 0.47 70.00 20.8928 11.6886 0 
263 1 0.43 70.00 15.0422 11.1752 0 
264 1 0.44 70.00 18.1224 12.9635 0 
265 1 0.47 70.00 11.7246 6.9698 0 
266 1 0.43 70.00 7.7719 12.8954 0 
267 1 0.43 70.00 18.6894 3.3395 0 
268 1 0.46 70.00 1.2597 7.5422 0 
269 1 0.51 70.00 3.7992 0.9599 0 
270 1 0.45 70.00 19.4098 11.0376 0 
271 1 0.53 70.00 26.0228 13.1208 0 
272 1 0.48 70.00 25.5602 8.5399 0 
273 1 0.47 70.00 0.9367 10.3603 0 
274 1 0.43 70.00 1.4245 3.1113 0 
275 1 0.50 70.00 13.2328 1.3598 0 
276 1 0.46 70.00 12.3838 6.2912 0 
277 1 0.50 70.00 25.8062 8.0252 0 
278 1 0.43 70.00 4.3420 4.2690 0 
279 1 0.47 70.00 27.6495 10.8262 0 
280 1 0.48 70.00 12.2713 4.1572 0 
281 1 0.46 70.00 1.5827 7.0334 0 
282 1 0.47 70.00 24.4865 13.5377 0 
283 1 0.44 70.00 24.5237 2.1901 0 
284 1 0.51 70.00 22.7459 6.6106 0 
285 1 0.41 70.00 5.3911 2.1291 0 
286 1 0.51 70.00 25.3158 14.7017 0 
287 1 0.47 70.00 2.6602 4.8416 0 
288 1 0.49 70.00 9.7195 2.1060 0 
289 1 0.45 70.00 13.6296 10.4481 0 
290 1 0.51 70.00 3.7736 1.7205 0 
291 1 0.48 70.00 17.1950 6.9143 0 
292 1 0.45 70.00 11.8517 14.3476 0 
293 1 0.50 70.00 0.9803 12.1304 0 
294 1 0.49 70.00 10.5963 3.6347 0 
295 1 0.46 70.00 23.1138 8.3011 0 
296 1 0.49 70.00 7.9552 2.7852 0 
297 1 0.49 70.00 15.3084 14.1928 0 
298 1 0.53 70.00 15.7456 14.6328 0 
299 1 0.46 70.00 10.9796 4.4291 0 
300 1 0.54 70.00 13.9524 11.5777 0 
301 1 0.43 70.00 12.5343 8.3321 0 
302 1 0.48 70.00 13.1181 13.4899 0 
303 1 0.46 70.00 7.4126 13.2732 0 
304 1 0.46 70.00 15.0664 7.3272 0 
305 1 0.47 70.00 4.0675 13.1325 0 
306 1 0.49 70.00 7.2857 14.2729 0 
307 1 0.47 70.00 19.8489 6.2444 0 
308 1 0.46 70.00 25.3679 8.6025 0 
309 1 0.44 70.00 15.5382 14.2239 0 
310 1 0.50 70.00 25.0381 3.6403 0 
311 1 0.45 70.00 18.8796 13.7941 0 
312 1 0.48 70.00 6.6241 2.0334 0 
313 1 0.50 70.00 2.9340 1.8327 0 
314 1 0.44 70.00 26.7622 8.6554 0 
315 1 0.46 70.00 24.2677 13.5187 0 
316 1 0.46 70.00 1.7804 13.9250 0 
317 1 0.53 70.00 14.3910 11.0377 0 
318 1 0.45 70.00 24.2232 2.0554 0 
319 1 0.49 70.00 10.5828 4.1798 0 
320 1 0.46 70.00 8.0621 1.2363 0 
321 1 0.43 70.00 25.0301 13.9997 0 
322 1 0.44 70.00 18.8762 0.6093 0 
323 1 0.49 70.00 5.9834 5.3789 0 
324 1 0.42 70.00 5.0092 13.3080 0 
325 1 0.44 70.00 27.1753 13.2123 0 
326 1 0.48 70.00 19.6849 4.1843 0 
327 1 0.50 70.00 16.9384 1.6037 0 
328 1 0.45 70.00 12.8829 3.8114 0 
329 1 0.45 70.00 19.0085 5.0669 0 
330 1 0.46 70.00 14.5967 6.5052 0 
331 1 0.48 70.00 1.0247 5.2001 0 
332 1 0.50 70.00 23.0679 5.0442 0 
333 1 0.48 70.00 24.9684 5.9893 0 
334 1 0.44 70.00 14.0227 6.6560 0 
335 1 0.49 70.00 22.6709 7.5624 0 
336 1 0.43 70.00 11.7138 10.4315 0 
337 1 0.41 70.00 9.6681 10.0497 0 
338 1 0.49 70.00 5.1154 12.7011 0 
339 1 0.46 70.00 20.7679 3.0415 0 
340 1 0.49 70.00 18.7380 14.0179 0 
341 1 0.43 70.00 14.2075 8.7119 0 
342 1 0.45 70.00 3.1502 10.7901 0 
343 1 0.43 70.00 14.6452 12.3969 0 
344 1 0.45 70.00 19.9261 9.1415 0 
345 1 0.47 70.00 12.6411 12.7637 0 
346 1 0.46 70.00 6.0895 12.3120 0 
347 1 0.49 70.00 26.8980 14.0866 0 
348 1 0.44 70.00 2.4305 14.0585 0 
349 1 0.47 70.00 9.1181 11.5674 0 
350 1 0.49 70.00 12.5344 10.6137 0 
351 1 0.54 70.00 23.1108 3.7703 0 
352 1 0.48 70.00 25.9251 2.8938 0 
353 1 0.46 70.00 9.2361 3.0527 0 
354 1 0.50 70.00 12.6708 11.7606 0 
355 1 0.44 70.00 15.2807 10.5531 0 
356 1 0.47 70.00 9.5835 9.3364 0 
357 1 0.48 70.00 5.4037 1.1965 0 
358 1 0.43 70.00 27.4585 7.8554 0 
359 1 0.45 70.00 9.8624 12.6314 0 
360 1 0.40 70.00 6.3712 9.0688 0 
361 1 0.48 70.00 23.9730 14.4374 0 
362 1 0.48 70.00 1.3682 11.5656 0 
363 1 0.43 70.00 7.7838 13.4500 0 
364 1 0.54 70.00 8.6067 3.6000 0 
365 1 0.48 70.00 26.6205 14.2369 0 
366 1 0.46 70.00 27.7755 14.2238 0 
367 1 0.46 70.00 1.3600 4.4372 0 
368 1 0.47 70.00 0.5144 0.6225 0 
369 1 0.44 70.00 16.5517 12.3246 0 
370 1 0.51 70.00 0.6317 8.9190 0 
371 1 0.44 70.00 19.2600 8.6717 0 
372 1 0.49 70.00 7.1940 14.6041 0 
373 1 0.47 70.00 19.8533 2.5800 0 
374 1 0.48 70.00 26.6146 4.5502 0 
375 1 0.43 70.00 13.6388 7.4653 0 
376 1 0.44 70.00 24.4809 11.1309 0 
377 1 0.45 70.00 10.1234 4.6871 0 
378 1 0.51 70.00 10.2040 14.6039 0 
379 1 0.54 70.00 19.8778 13.9790 0 
380 1 0.46 70.00 17.4533 10.8683 0 
381 1 0.49 70.00 20.1658 10.0546 0 
382 1 0.51 70.00 4.9153 2.7477 0 
383 1 0.44 70.00 17.0491 1.1971 0 
384 1 0.41 70.00 25.9673 1.6807 0 
385 1 0.47 70.00 20.9015 12.5117 0 
386 1 0.50 70.00 17.0059 2.9217 0 
387 1 0.45 70.00 7.1003 8.2380 0 
388 1 0.48 70.00 15.4812 2.7684 0 
389 1 0.56 70.00 10.8208 1.1275 0 
390 1 0.53 70.00 26.3262 14.6850 0 
391 1 0.48 70.00 3.5018 14.4788 0 
392 1 0.47 70.00 12.9493 9.0795 0 
393 1 0.50 70.00 1.0482 0.9975 0 
394 1 0.47 70.00 11.9029 2.5686 0 
395 1 0.47 70.00 6.2717 10.2395 0 
396 1 0.45 70.00 0.9905 3.8683 0 
397 1 0.43 70.00 19.9937 4.6673 0 
398 1 0.48 70.00 26.9601 3.1557 0 
399 1 0.50 70.00 9.5165 12.7884 0 
400 1 0.52 70.00 11.1623 3.1976 0 
401 1 0.51 70.00 1.7288 11.7858 0 
402 1 0.51 70.00 13.6952 10.6796 0 
403 1 0.46 70.00 25.0613 5.7396 0 
404 1 0.47 70.00 23.9420 12.4847 0 
405 1 0.42 70.00 6.7639 6.8099 0 
406 1 0.41 70.00 13.3269 7.9289 0 
407 1 0.45 70.00 9.5360 5.1866 0 
408 1 0.48 70.00 1.5761 2.9132 0 
409 1 0.47 70.00 11.6561 12.3880 0 
410 1 0.42 70.00 25.1176 5.0508 0 
411 1 0.49 70.00 27.5873 8.2117 0 
412 1 0.49 70.00 3.1994 8.4044 0 
413 1 0.46 70.00 16.4100 3.4359 0 
414 1 0.43 70.00 6.8110 7.9379 0 
415 1 0.54 70.00 8.6215 6.0551 0 
416 1 0.42 70.00 5.6024 12.9041 0 
417 1 0.47 70.00 13.0083 12.3886 0 
418 1 0.44 70.00 2.6653 3.9481 0 
419 1 0.44 70.00 10.4198 5.3291 0 
420 1 0.45 70.00 23.3149 13.9293 0 
421 1 0.53 70.00 18.6052 11.1300 0 
422 1 0.46 70.00 19.5223 1.9819 0 
423 1 0.42 70.00 8.8438 3.6885 0 
424 1 0.40 70.00 24.2225 7.9801 0 
425 1 0.48 70.00 7.4902 0.6824 0 
426 1 0.46 70.00 22.1511 1.0627 0 
427 1 0.43 70.00 5.3427 2.4290 0 
428 1 0.47 70.00 12.4023 12.3036 0 
429 1 0.49 70.00 15.3269 1.3264 0 
430 1 0.45 70.00 1.1787 9.5171 0 
431 1 0.43 70.00 4.1570 1.4594 0 
432 1 0.45 70.00 20.0663 3.5875 0 
433 1 0.46 70.00 23.2443 11.3259 0 
434 1 0.46 70.00 9.9635 11.8070 0 
435 1 0.47 70.00 16.6805 2.7972 0 
436 1 0.42 70.00 10.0699 2.3404 0 
437 1 0.43 70.00 10.8001 4.2261 0 
438 1 0.41 70.00 6.1046 10.0796 0 
439 1 0.43 70.00 25.4430 13.9306 0 
440 1 0.39 70.00 4.8784 6.6775 0 
441 1 0.49 70.00 13.1384 4.8720 0 
442 1 0.44 70.00 18.7207 4.1913 0 
443 1 0.45 70.00 17.8840 10.8130 0 
444 1 0.53 70.00 17.0853 9.6934 0 
445 1 0.49 70.00 2.9436 4.6025 0 
446 1 0.46 70.00 18.6962 13.5117 0 
447 1 0.48 70.00 12.6804 3.7662 0 
448 1 0.49 70.00 8.8116 14.0147 0 
449 1 0.45 70.00 11.3629 4.7064 0 
450 1 0.51 70.00 25.6950 7.5644 0 
451 1 0.44 70.00 6.8218 11.8759 0 
452 1 0.48 70.00 13.1818 6.9949 0 
453 1 0.44 70.00 4.2473 8.6880 0 
454 1 0.47 70.00 24.1656 10.8174 0 
455 1 0.44 70.00 13.9577 2.5233 0 
456 1 0.51 70.00 14.6193 5.0456 0 
457 1 0.51 70.00 18.1585 4.4083 0 
458 1 0.44 70.00 4.0556 4.0709 0 
459 1 0.50 70.00 5.5108 8.7538 0 
460 1 0.49 70.00 1.0358 11.2129 0 
461 1 0.43 70.00 8.8931 7.3216 0 
462 1 0.46 70.00 15.7458 13.9955 0 
463 1 0.47 70.00 25.9385 4.0916 0 
464 1 0.47 70.00 11.5551 4.8104 0 
465 1 0.53 70.00 21.5988 14.7912 0 
466 1 0.46 70.00 12.2822 11.4772 0 
467 1 0.52 70.00 23.1546 14.7371 0 
468 1 0.44 70.00 0.8042 5.7853 0 
469 1 0.46 70.00 1.8219 2.6327 0 
470 1 0.46 70.00 21.1914 7.5840 0 
471 1 0.48 70.00 15.2527 7.4323 0 
472 1 0.53 70.00 13.5021 5.7891 0 
473 1 0.42 70.00 21.2802 8.3623 0 
474 1 0.50 70.00 25.9245 12.4105 0 
475 1 0.49 70.00 5.5132 14.7847 0 
476 1 0.44 70.00 27.3830 13.4101 0 
477 1 0.51 70.00 16.0149 3.8051 0 
478 1 0.46 70.00 24.6424 6.0088 0 
479 1 0.47 70.00 14.7231 9.1591 0 
480 1 0.45 70.00 19.4701 8.4273 0 
481 1 0.45 70.00 8.1847 13.8615 0 
482 1 0.54 70.00 13.0813 9.4299 0 
483 1 0.43 70.00 27.1690 8.0406 0 
484 1 0.49 70.00 25.3119 10.8654 0 
485 1 0.49 70.00 27.2373 12.6081 0 
486 1 0.47 70.00 16.8614 8.3867 0 
487 1 0.46 70.00 12.2433 10.2969 0 
488 1 0.43 70.00 15.3284 9.1084 0 
489 1 0.44 70.00 7.8477 10.3080 0 
490 1 0.48 70.00 1.6133 4.6937 0 
491 1 0.48 70.00 17.4792 4.5201 0 
492 1 0.49 70.00 9.3572 6.4016 0 
493 1 0.44 70.00 11.9492 3.1701 0 
494 1 0.51 70.00 15.7453 4.7564 0 
495 1 0.46 70.00 25.6661 13.3982 0 
496 1 0.48 70.00 17.3717 4.3483 0 
497 1 0.45 70.00 0.8223 5.2962 0 
498 1 0.50 70.00 26.6390 12.3958 0 
499 1 0.47 70.00 24.0969 3.5922 0 
500 1 0.45 70.00 13.9564 10.0970 0 
501 1 0.47 70.00 6.1493 14.3236 0 
502 1 0.48 70.00 3.0926 12.8680 0 
503 1 0.46 70.00 22.6885 14.5690 0 
504 1 0.46 70.00 13.5597 6.2543 0 
505 1 0.50 70.00 6.1032 11.9164 0 
506 1 0.47 70.00 19.9452 2.1497 0 
507 1 0.43 70.00 18.4700 6.6808 0 
508 1 0.46 70.00 21.3424 7.9485 0 
509 1 0.50 70.00 11.0262 13.1702 0 
510 1 0.43 70.00 20.2367 1.9803 0 
511 1 0.46 70.00 3.0627 6.9852 0 
512 1 0.48 70.00 12.6916 0.7170 0 
513 1 0.49 70.00 15.4118 0.8435 0 
514 1 0.50 70.00 21.5697 1.8648 0 
515 1 0.50 70.00 21.2684 9.9919 0 
516 1 0.49 70.00 17.2871 14.3533 0 
517 1 0.50 70.00 18.0615 5.0506 0 
518 1 0.48 70.00 3.1848 12.4445 0 
519 1 0.45 70.00 11.8885 8.3868 0 
520 1 0.48 70.00 19.9863 8.3325 0 
521 1 0.47 70.00 4.3097 0.9775 0 
522 1 0.50 70.00 6.3269 1.2068 0 
523 1 0.49 70.00 5.0958 8.7880 0 
524 1 0.48 70.00 10.2686 3.9022 0 
525 1 0.50 70.00 7.1350 9.2798 0 
526 1 0.48 70.00 23.3598 1.8303 0 
527 1 0.45 70.00 23.3625 2.1332 0 
528 1 0.48 70.00 19.5771 3.8815 0 
529 1 0.45 70.00 22.3218 11.7264 0 
530 1 0.44 70.00 11.5310 13.6876 0 
531 1 0.49 70.00 13.6452 3.0476 0 
532 1 0.45 70.00 16.8508 6.1259 0 
533 1 0.48 70.00 27.6064 3.1054 0 
534 1 0.51 70.00 22.4689 1.9996 0 
535 1 0.50 70.00 15.5510 9.8100 0 
536 1 0.51 70.00 3.4625 3.0651 0 
537 1 0.46 70.00 21.3220 0.5099 0 
538 1 0.54 70.00 9.9694 5.6348 0 
539 1 0.45 70.00 13.4725 12.3409 0 
540 1 0.44 70.00 9.7320 11.2303 0 
541 1 0.45 70.00 19.5678 0.6400 0 
542 1 0.52 70.00 7.5170 10.7628 0 
543 1 0.47 70.00 4.7805 11.4843 0 
544 1 0.47 70.00 21.8899 9.6665 0 
545 1 0.49 70.00 6.3954 11.8336 0 
546 1 0.51 70.00 2.0254 1.0670 0 
547 1 0.45 70.00 4.2009 6.9835 0 
548 1 0.49 70.00 9.9282 13.7547 0 
549 1 0.47 70.00 3.9702 9.9406 0 
550 1 0.48 70.00 8.1892 5.4258 0 
551 1 0.46 70.00 7.4184 1.2735 0 
552 1 0.44 70.00 18.6112 7.0646 0 
553 1 0.46 70.00 6.4068 13.6094 0 
554 1 0.46 70.00 9.1676 9.4459 0 
555 1 0.39 70.00 3.8380 1.2004 0 
556 1 0.51 70.00 13.7834 9.9743 0 
557 1 0.52 70.00 5.3854 3.2646 0 
558 1 0.51 70.00 1.1618 3.3416 0 
559 1 0.50 70.00 22.1198 1.6402 0 
560 1 0.49 70.00 5.9671 2.4498 0 
561 1 0.49 70.00 3.7800 6.1187 0 
562 1 0.48 70.00 10.9416 1.4567 0 
563 1 0.48 70.00 6.2457 13.4577 0 
564 1 0.50 70.00 3.3838 10.8907 0 
565 1 0.50 70.00 6.9732 7.0942 0 
566 1 0.46 70.00 1.5490 2.4653 0 
567 1 0.45 70.00 7.4216 12.3544 0 
568 1 0.48 70.00 2.3829 6.8673 0 
569 1 0.44 70.00 9.9180 1.8953 0 
570 1 0.49 70.00 4.0517 4.7005 0 
571 1 0.46 70.00 27.2997 10.8302 0 
572 1 0.50 70.00 5.7977 3.8941 0 
573 1 0.52 70.00 25.9519 10.5491 0 
574 1 0.46 70.00 3.7652 6.8443 0 
575 1 0.48 70.00 10.4403 12.4733 0 
576 1 0.49 70.00 24.8343 13.7417 0 
577 1 0.53 70.00 19.9666 14.1608 0 
578 1 0.49 70.00 3.8174 5.6358 0 
579 1 0.45 70.00 25.9862 12.8343 0 
580 1 0.48 70.00 16.5610 5.6368 0 
581 1 0.47 70.00 11.7304 1.1012 0 
582 1 0.46 70.00 4.6465 2.4747 0 
583 1 0.40 70.00 17.3887 5.7914 0 
584 1 0.47 70.00 8.7444 2.7473 0 
585 1 0.48 70.00 14.3168 4.9121 0 
586 1 0.48 70.00 26.8490 10.8702 0 
587 1 0.47 70.00 6.8102 1.5118 0 
588 1 0.44 70.00 27.1917 6.5988 0 
589 1 0.47 70.00 3.4727 7.8370 0 
590 1 0.45 70.00 16.3920 13.5723 0 
591 1 0.49 70.00 22.3337 6.2204 0 
592 1 0.44 70.00 26.1292 13.9137 0 
593 1 0.46 70.00 18.6092 7.8839 0 
594 1 0.46 70.00 7.3910 8.7764 0 
595 1 0.44 70.00 4.8441 3.1734 0 
596 1 0.48 70.00 8.0384 11.6418 0 
597 1 0.49 70.00 16.9024 11.7947 0 
598 1 0.49 70.00 26.7999 13.1325 0 
599 1 0.45 70.00 25.9320 10.1344 0 
600 1 0.43 70.00 17.9756 3.3394 0 
601 1 0.45 70.00 14.8918 10.2817 0 
602 1 0.50 70.00 5.3320 14.3909 0 
603 1 0.46 70.00 26.8004 1.0676 0 
604 1 0.52 70.00 16.3416 14.4476 0 
605 1 0.44 70.00 21.4501 0.8069 0 
606 1 0.49 70.00 19.4800 4.5100 0 
607 1 0.46 70.00 0.9592 13.5509 0 
608 1 0.46 70.00 27.7862 9.3256 0 
609 1 0.53 70.00 12.1912 12.1426 0 
610 1 0.45 70.00 11.1991 11.4772 0 
611 1 0.46 70.00 5.3319 12.7218 0 
612 1 0.51 70.00 0.7053 4.1278 0 
613 1 0.47 70.00 8.5599 0.8522 0 
614 1 0.43 70.00 18.4394 2.8349 0 
615 1 0.50 70.00 0.8572 6.6428 0 
616 1 0.49 70.00 21.6884 0.9997 0 
617 1 0.44 70.00 17.8822 4.0689 0 
618 1 0.46 70.00 18.0490 7.3567 0 
619 1 0.43 70.00 9.1583 3.6690 0 
620 1 0.49 70.00 4.9559 10.9301 0 
621 1 0.44 70.00 5.0513 5.4164 0 
622 1 0.49 70.00 23.6982 6.4463 0 
623 1 0.47 70.00 6.0725 13.6188 0 
624 1 0.43 70.00 4.4530 11.4897 0 
625 1 0.50 70.00 13.3778 6.7689 0 
626 1 0.47 70.00 5.5439 1.6435 0 
627 1 0.50 70.00 12.1721 4.6617 0 
628 1 0.45 70.00 12.4127 9.9398 0 
629 1 0.47 70.00 8.9143 5.7112 0 
630 1 0.47 70.00 2.8358 13.3390 0 
631 1 0.49 70.00 6.9488 12.7932 0 
632 1 0.49 70.00 22.9111 1.8994 0 
633 1 0.50 70.00 6.7795 2.3057 0 
634 1 0.50 70.00 11.8019 12.9110 0 
635 1 0.49 70.00 17.9363 4.3251 0 
636 1 0.41 70.00 1.1127 12.9652 0 
637 1 0.50 70.00 26.1674 12.0220 0 
638 1 0.50 70.00 11.3764 3.2097 0 
639 1 0.44 70.00 15.4444 3.6776 0 
640 1 0.47 70.00 4.9943 6.2294 0 
641 1 0.47 70.00 19.7022 1.0537 0 
642 1 0.48 70.00 3.7438 12.4610 0 
643 1 0.45 70.00 10.1223 7.7813 0 
644 1 0.45 70.00 11.1541 7.5975 0 
645 1 0.44 70.00 17.3614 8.1247 0 
646 1 0.53 70.00 24.3751 4.3166 0 
647 1 0.50 70.00 14.3344 10.6687 0 
648 1 0.41 70.00 14.4134 1.2999 0 
649 1 0.46 70.00 22.5931 7.9133 0 
650 1 0.42 70.00 20.6389 10.5836 0 
651 1 0.42 70.00 3.6336 10.5685 0 
652 1 0.44 70.00 10.4485 1.7141 0 
653 1 0.46 70.00 4.5602 1.8291 0 
654 1 0.47 70.00 17.7746 9.4653 0 
655 1 0.46 70.00 11.1921 3.7091 0 
656 1 0.51 70.00 2.3984 5.6493 0 
657 1 0.50 70.00 27.6599 0.9088 0 
658 1 0.46 70.00 8.8253 9.5004 0 
659 1 0.44 70.00 12.5700 4.8909 0 
660 1 0.47 70.00 12.1974 8.2314 0 
661 1 0.47 70.00 20.1989 4.7088 0 
662 1 0.47 70.00 17.4359 8.3507 0 
663 1 0.45 70.00 5.8935 13.9595 0 
664 1 0.43 70.00 1.0772 6.5521 0 
665 1 0.42 70.00 27.7639 1.4148 0 
666 1 0.51 70.00 4.7056 2.6961 0 
667 1 0.43 70.00 23.8529 5.3559 0 
668 1 0.48 70.00 1.9688 11.7305 0 
669 1 0.45 70.00 18.4273 9.0692 0 
670 1 0.45 70.00 8.5517 11.6882 0 
671 1 0.53 70.00 0.8338 7.7819 0 
672 1 0.45 70.00 2.9340 3.8369 0 
673 1 0.49 70.00 5.0468 12.2198 0 
674 1 0.48 70.00 2.2216 13.2026 0 
675 1 0.45 70.00 16.2679 11.1796 0 
676 1 0.48 70.00 2.4337 11.3314 0 
677 1 0.47 70.00 27.3970 0.6402 0 
678 1 0.46 70.00 18.8877 2.2396 0 
679 1 0.44 70.00 20.5407 6.7668 0 
680 1 0.49 70.00 16.0680 9.7000 0 
681 1 0.45 70.00 22.0088 4.0370 0 
682 1 0.45 70.00 7.4775 4.9398 0 
683 1 0.51 70.00 4.2010 12.8660 0 
684 1 0.44 70.00 1.0147 6.8524 0 
685 1 0.51 70.00 20.5909 6.0389 0 
686 1 0.51 70.00 24.9631 0.7042 0 
687 1 0.48 70.00 25.4057 3.5854 0 
688 1 0.51 70.00 2.2859 1.6600 0 
689 1 0.47 70.00 17.2230 1.5133 0 
690 1 0.50 70.00 2.5639 9.1912 0 
691 1 0.48 70.00 9.4179 8.1806 0 
692 1 0.51 70.00 2.9716 5.6203 0 
693 1 0.43 70.00 9.8798 14.5067 0 
694 1 0.47 70.00 9.7707 7.5937 0 
695 1 0.43 70.00 23.4726 10.3578 0 
696 1 0.48 70.00 5.1690 14.0033 0 
697 1 0.50 70.00 18.6628 9.9697 0 
698 1 0.46 70.00 23.1245 10.7996 0 
699 1 0.52 70.00 20.0427 10.8658 0 
700 1 0.52 70.00 19.8807 10.6904 0 
701 1 0.50 70.00 7.3686 5.9311 0 
702 1 0.48 70.00 20.4085 11.2423 0 
703 1 0.52 70.00 18.0012 9.1328 0 
704 1 0.53 70.00 21.3522 12.2179 0 
705 1 0.48 70.00 11.7819 4.9613 0 
706 1 0.42 70.00 15.6671 5.9622 0 
707 1 0.46 70.00 9.4529 7.1798 0 
708 1 0.50 70.00 6.7909 2.9079 0 
709 1 0.48 70.00 1.5868 14.5734 0 
710 1 0.45 70.00 22.7972 3.0877 0 
711 1 0.46 70.00 6.7576 3.5976 0 
712 1 0.49 70.00 21.8289 1.6547 0 
713 1 0.46 70.00 17.1808 10.0008 0 
714 1 0.41 70.00 6.6446 5.6519 0 
715 1 0.49 70.00 13.1578 9.7579 0 
716 1 0.41 70.00 10.4327 9.0761 0 
717 1 0.51 70.00 13.6410 3.7644 0 
718 1 0.38 70.00 21.1719 3.3774 0 
719 1 0.38 70.00 27.5061 11.9237 0 
720 1 0.51 70.00 9.4421 3.2580 0 
721 1 0.47 70.00 18.7897 9.4877 0 
722 1 0.50 70.00 5.6319 13.8904 0 
723 1 0.46 70.00 5.8100 7.8135 0 
724 1 0.50 70.00 9.3489 8.4376 0 
725 1 0.47 70.00 1.8182 7.6322 0 
726 1 0.45 70.00 11.9719 11.1098 0 
727 1 0.49 70.00 26.5228 8.6549 0 
728 1 0.49 70.00 5.5241 4.8744 0 
729 1 0.49 70.00 16.0273 11.7314 0 
730 1 0.45 70.00 17.7533 4.4065 0 
731 1 0.47 70.00 20.1517 2.8804 0 
732 1 0.47 70.00 6.0558 3.5802 0 
733 1 0.49 70.00 19.2072 12.7133 0 
734 1 0.54 70.00 20.3212 10.8036 0 
735 1 0.46 70.00 25.1570 0.9772 0 
736 1 0.47 70.00 8.2957 0.6741 0 
737 1 0.45 70.00 26.4614 0.8699 0 
738 1 0.39 70.00 3.0288 5.3193 0 
739 1 0.51 70.00 25.0953 14.5248 0 
740 1 0.51 70.00 9.1774 1.4182 0 
741 1 0.52 70.00 11.3108 9.9527 0 
742 1 0.44 70.00 9.7862 14.2370 0 
743 1 0.50 70.00 14.7717 4.0682 0 
744 1 0.45 70.00 17.8513 7.4301 0 
745 1 0.49 70.00 22.8965 8.2665 0 
746 1 0.46 70.00 23.8693 2.0386 0 
747 1 0.51 70.00 25.8788 4.4022 0 
748 1 0.46 70.00 24.2073 6.5250 0 
749 1 0.42 70.00 25.6478 10.6902 0 
750 1 0.48 70.00 12.9675 7.4229 0 
751 1 0.51 70.00 1.9852 3.1028 0 
752 1 0.50 70.00 20.0634 8.6579 0 
753 1 0.44 70.00 3.8877 10.5119 0 
754 1 0.47 70.00 11.5547 5.7463 0 
755 1 0.45 70.00 8.4775 2.7452 0 
756 1 0.45 70.00 9.2532 7.5002 0 
757 1 0.46 70.00 3.2912 2.8556 0 
758 1 0.53 70.00 25.7523 14.1811 0 
759 1 0.46 70.00 22.7240 10.9344 0 
760 1 0.48 70.00 16.0901 3.5823 0 
761 1 0.47 70.00 17.8587 8.9420 0 
762 1 0.46 70.00 9.2624 12.0247 0 
763 1 0.49 70.00 24.9201 1.5316 0 
764 1 0.51 70.00 17.0808 0.9518 0 
765 1 0.48 70.00 9.2602 2.5105 0 
766 1 0.49 70.00 25.1040 4.3961 0 
767 1 0.45 70.00 16.1532 9.9183 0 
768 1 0.51 70.00 9.9183 12.2325 0 
769 1 0.46 70.00 21.8241 14.0149 0 
770 1 0.46 70.00 2.8691 11.3433 0 
771 1 0.47 70.00 9.8030 9.5387 0 
772 1 0.47 70.00 2.4483 14.2836 0 
773 1 0.47 70.00 2.1944 12.3993 0 
774 1 0.47 70.00 23.6519 13.4155 0 
775 1 0.52 70.00 13.2409 8.2910 0 
776 1 0.44 70.00 2.8334 9.7592 0 
777 1 0.40 70.00 25.7938 14.4077 0 
778 1 0.47 70.00 10.8701 13.7905 0 
779 1 0.47 70.00 22.0551 11.5576 0 
780 1 0.49 70.00 2.2695 4.1906 0 
781 1 0.49 70.00 16.2852 6.6907 0 
782 1 0.44 70.00 18.6964 10.7601 0 
783 1 0.45 70.00 26.6247 7.6675 0 
784 1 0.51 70.00 26.5067 13.7027 0 
785 1 0.47 70.00 10.3575 11.1356 0 
786 1 0.44 70.00 15.9919 6.7197 0 
787 1 0.48 70.00 6.0824 11.0270 0 
788 1 0.51 70.00 2.6168 12.9627 0 
789 1 0.49 70.00 27.3340 5.9326 0 
790 1 0.49 70.00 24.1323 6.8347 0 
791 1 0.45 70.00 7.6110 7.0994 0 
792 1 0.45 70.00 10.9350 3.0447 0 
793 1 0.43 70.00 5.3467 9.9476 0 
794 1 0.45 70.00 25.7015 0.8881 0 
795 1 0.51 70.00 10.0612 9.3823 0 
796 1 0.45 70.00 7.3810 1.5145 0 
797 1 0.51 70.00 23.6992 0.7634 0 
798 1 0.46 70.00 9.0842 8.3752 0 
799 1 0.47 70.00 19.5074 12.9535 0 
800 1 0.46 70.00 4.4251 12.0266 0 
801 1 0.47 70.00 6.0670 3.0202 0 
802 1 0.44 70.00 19.0432 11.7262 0 
803 1 0.49 70.00 6.1573 0.8218 0 
804 1 0.46 70.00 6.3135 13.1725 0 
805 1 0.48 70.00 25.2220 9.7713 0 
806 1 0.49 70.00 11.2867 10.6308 0 
807 1 0.48 70.00 7.4749 2.0544 0 
808 1 0.49 70.00 25.9149 9.7480 0 
809 1 0.47 70.00 26.2856 0.6922 0 
810 1 0.45 70.00 0.8775 9.1185 0 
811 1 0.48 70.00 12.7237 2.0183 0 
812 1 0.48 70.00 11.4579 1.8660 0 
813 1 0.49 70.00 11.2510 2.5624 0 
814 1 0.48 70.00 3.3532 9.0771 0 
815 1 0.45 70.00 10.8685 9.3170 0 
816 1 0.49 70.00 5.9463 0.7618 0 
817 1 0.47 70.00 2.6289 10.6295 0 
818 1 0.46 70.00 15.0941 10.9624 0 
819 1 0.44 70.00 9.6124 4.2043 0 
820 1 0.43 70.00 3.0044 9.9118 0 
821 1 0.46 70.00 12.0431 2.7686 0 
822 1 0.44 70.00 0.7751 10.2184 0 
823 1 0.46 70.00 24.5359 3.1087 0 
824 1 0.42 70.00 24.5177 1.0074 0 
825 1 0.43 70.00 24.1640 11.5776 0 
826 1 0.53 70.00 2.8601 1.6093 0 
827 1 0.45 70.00 3.4176 8.6955 0 
828 1 0.44 70.00 4.4689 7.4371 0 
829 1 0.46 70.00 22.2074 3.1558 0 
830 1 0.44 70.00 9.5009 10.6270 0 
831 1 0.51 70.00 6.8432 5.0265 0 
832 1 0.45 70.00 11.8012 13.6819 0 
833 1 0.49 70.00 20.1693 13.0949 0 
834 1 0.48 70.00 3.9651 11.7457 0 
835 1 0.48 70.00 14.0007 4.6264 0 
836 1 0.46 70.00 16.7632 4.4390 0 
837 1 0.49 70.00 4.3291 14.4321 0 
838 1 0.47 70.00 5.5765 3.5981 0 
839 1 0.50 70.00 17.2686 7.7202 0 
840 1 0.45 70.00 17.9534 13.8083 0 
841 1 0.43 70.00 21.4526 4.3582 0 
842 1 0.47 70.00 1.4250 7.3380 0 
843 1 0.47 70.00 1.8991 8.7983 0 
844 1 0.51 70.00 24.8773 2.2581 0 
845 1 0.50 70.00 13.0069 14.0571 0 
846 1 0.53 70.00 15.2471 9.8651 0 
847 1 0.54 70.00 13.2052 14.2505 0 
848 1 0.50 70.00 13.5227 6.5369 0 
849 1 0.48 70.00 25.7377 6.1128 0 
850 1 0.44 70.00 27.3022 9.5325 0 
851 1 0.48 70.00 15.9094 1.5929 0 
852 1 0.47 70.00 22.4651 2.2992 0 
853 1 0.48 70.00 13.3232 2.0172 0 
854 1 0.49 70.00 2.2858 2.6811 0 
855 1 0.45 70.00 6.7426 12.6209 0 
856 1 0.47 70.00 20.0506 6.7144 0 
857 1 0.47 70.00 23.6160 5.1656 0 