# LAMMPS data file for rigid bodies

2520 atoms

2 atom types

0.0 	 28.0 	 xlo xhi 
0.0 	 15.0 	 ylo yhi 
-1.0 	 1.0 	 zlo zhi 

Atoms

1 1 0.51 70.00 2.4074 4.9914 0 
2 1 0.47 70.00 13.1372 11.1070 0 
3 1 0.49 70.00 5.1076 13.9364 0 
4 1 0.46 70.00 4.0632 9.5530 0 
5 1 0.48 70.00 10.9351 5.9821 0 
6 1 0.48 70.00 17.5114 6.2675 0 
7 1 0.47 70.00 18.5330 4.0676 0 
8 1 0.46 70.00 9.0984 9.1487 0 
9 1 0.46 70.00 23.7550 0.9355 0 
10 1 0.44 70.00 10.6703 9.4464 0 
11 1 0.48 70.00 8.6254 4.0221 0 
12 1 0.49 70.00 8.3205 12.6921 0 
13 1 0.47 70.00 21.6389 0.9792 0 
14 1 0.47 70.00 8.5146 14.0849 0 
15 1 0.48 70.00 27.5939 12.4752 0 
16 1 0.48 70.00 19.3248 6.9098 0 
17 1 0.48 70.00 16.7153 8.6772 0 
18 1 0.49 70.00 16.0650 8.1801 0 
19 1 0.44 70.00 27.6198 10.6208 0 
20 1 0.50 70.00 9.9971 13.8619 0 
21 1 0.46 70.00 14.1739 7.6614 0 
22 1 0.48 70.00 13.8004 14.6373 0 
23 1 0.51 70.00 11.7887 11.3501 0 
24 1 0.49 70.00 12.1109 4.5699 0 
25 1 0.49 70.00 4.4258 9.2339 0 
26 1 0.51 70.00 11.3300 13.5139 0 
27 1 0.47 70.00 26.3683 4.3324 0 
28 1 0.54 70.00 3.3962 1.1558 0 
29 1 0.43 70.00 19.3239 11.5332 0 
30 1 0.49 70.00 26.4761 6.2002 0 
31 1 0.49 70.00 25.6625 5.4816 0 
32 1 0.40 70.00 9.3857 6.1950 0 
33 1 0.51 70.00 21.4750 3.3937 0 
34 1 0.45 70.00 6.8295 5.0231 0 
35 1 0.48 70.00 22.8599 4.1452 0 
36 1 0.47 70.00 6.8067 5.9371 0 
37 1 0.46 70.00 14.7015 8.1847 0 
38 1 0.44 70.00 23.5979 5.5353 0 
39 1 0.46 70.00 27.4007 5.8083 0 
40 1 0.44 70.00 3.4610 1.6167 0 
41 1 0.43 70.00 17.3831 2.6502 0 
42 1 0.48 70.00 7.8490 4.1600 0 
43 1 0.44 70.00 19.5860 9.6218 0 
44 1 0.43 70.00 2.4185 2.3951 0 
45 1 0.48 70.00 8.3492 9.5838 0 
46 1 0.47 70.00 9.2929 4.9102 0 
47 1 0.45 70.00 20.8094 7.0319 0 
48 1 0.44 70.00 9.2272 13.8623 0 
49 1 0.51 70.00 2.3755 10.2723 0 
50 1 0.45 70.00 3.4524 5.5067 0 
51 1 0.50 70.00 19.0502 7.7751 0 
52 1 0.47 70.00 6.1347 1.8658 0 
53 1 0.47 70.00 11.7313 2.0359 0 
54 1 0.50 70.00 11.8798 3.9682 0 
55 1 0.47 70.00 2.1377 2.8630 0 
56 1 0.51 70.00 8.4928 13.2550 0 
57 1 0.50 70.00 13.1572 14.0659 0 
58 1 0.41 70.00 20.2958 13.0733 0 
59 1 0.47 70.00 23.6346 9.1352 0 
60 1 0.46 70.00 8.4730 5.5974 0 
61 1 0.49 70.00 25.7142 12.9708 0 
62 1 0.48 70.00 12.8334 1.5372 0 
63 1 0.42 70.00 18.9271 11.3217 0 
64 1 0.51 70.00 10.7081 4.6034 0 
65 1 0.46 70.00 4.1615 5.0581 0 
66 1 0.49 70.00 10.1199 8.3568 0 
67 1 0.47 70.00 21.5329 11.7096 0 
68 1 0.47 70.00 16.0888 13.0223 0 
69 1 0.44 70.00 16.3439 10.7127 0 
70 1 0.46 70.00 11.6798 8.7083 0 
71 1 0.46 70.00 14.4895 8.5279 0 
72 1 0.46 70.00 25.8120 13.9024 0 
73 1 0.46 70.00 25.7528 4.8857 0 
74 1 0.45 70.00 18.2425 11.8295 0 
75 1 0.49 70.00 12.3492 11.8001 0 
76 1 0.48 70.00 4.5466 12.0056 0 
77 1 0.51 70.00 10.8955 6.2352 0 
78 1 0.43 70.00 16.6694 6.5625 0 
79 1 0.52 70.00 21.5110 7.5907 0 
80 1 0.52 70.00 14.9021 2.0936 0 
81 1 0.44 70.00 15.0395 6.2314 0 
82 1 0.45 70.00 17.7385 1.2139 0 
83 1 0.43 70.00 18.2111 14.5090 0 
84 1 0.45 70.00 9.9484 10.2946 0 
85 1 0.49 70.00 13.0779 10.8176 0 
86 1 0.48 70.00 8.7667 3.3624 0 
87 1 0.49 70.00 12.0775 2.2313 0 
88 1 0.44 70.00 1.2085 0.9999 0 
89 1 0.48 70.00 4.6902 13.2544 0 
90 1 0.47 70.00 4.4964 7.0062 0 
91 1 0.44 70.00 14.4919 12.5826 0 
92 1 0.45 70.00 2.2525 3.6927 0 
93 1 0.47 70.00 9.4537 4.1269 0 
94 1 0.48 70.00 3.9049 11.1460 0 
95 1 0.52 70.00 11.2879 13.9297 0 
96 1 0.49 70.00 2.8470 14.0882 0 
97 1 0.46 70.00 16.9377 4.3266 0 
98 1 0.46 70.00 3.1736 1.4440 0 
99 1 0.46 70.00 22.1481 14.6774 0 
100 1 0.48 70.00 15.2728 4.1232 0 
101 1 0.45 70.00 2.6588 3.0672 0 
102 1 0.45 70.00 2.6023 6.0888 0 
103 1 0.49 70.00 26.4940 2.4416 0 
104 1 0.51 70.00 21.9974 11.1189 0 
105 1 0.49 70.00 13.0492 4.0536 0 
106 1 0.54 70.00 4.3583 5.5573 0 
107 1 0.52 70.00 3.0309 4.7540 0 
108 1 0.46 70.00 24.3826 11.0350 0 
109 1 0.41 70.00 6.5214 1.3268 0 
110 1 0.46 70.00 5.2486 11.2133 0 
111 1 0.41 70.00 12.7286 3.5562 0 
112 1 0.43 70.00 21.9791 4.5210 0 
113 1 0.49 70.00 17.1240 5.0173 0 
114 1 0.45 70.00 11.0738 14.3249 0 
115 1 0.49 70.00 8.4938 1.1309 0 
116 1 0.44 70.00 2.6575 2.2816 0 
117 1 0.51 70.00 22.7632 13.0430 0 
118 1 0.49 70.00 1.0411 2.2260 0 
119 1 0.47 70.00 24.4246 7.5253 0 
120 1 0.49 70.00 3.1379 9.8929 0 
121 1 0.46 70.00 1.8925 7.5088 0 
122 1 0.45 70.00 22.6826 1.4639 0 
123 1 0.48 70.00 3.4643 12.1354 0 
124 1 0.50 70.00 17.2398 6.7509 0 
125 1 0.49 70.00 1.2224 1.6720 0 
126 1 0.45 70.00 3.3322 5.9066 0 
127 1 0.44 70.00 3.6511 11.5869 0 
128 1 0.46 70.00 15.1570 14.0620 0 
129 1 0.47 70.00 18.1500 6.4583 0 
130 1 0.44 70.00 7.2912 5.5914 0 
131 1 0.45 70.00 7.6295 9.2265 0 
132 1 0.46 70.00 21.4951 5.4209 0 
133 1 0.46 70.00 7.0694 8.6367 0 
134 1 0.50 70.00 21.6945 3.3621 0 
135 1 0.47 70.00 3.3804 1.8038 0 
136 1 0.48 70.00 15.8078 1.7090 0 
137 1 0.46 70.00 1.6263 7.3591 0 
138 1 0.41 70.00 7.3751 8.3606 0 
139 1 0.46 70.00 5.3220 4.7053 0 
140 1 0.45 70.00 6.6949 10.1287 0 
141 1 0.48 70.00 10.2039 4.9689 0 
142 1 0.52 70.00 27.3832 13.2646 0 
143 1 0.50 70.00 18.9565 9.8225 0 
144 1 0.43 70.00 13.5819 3.9811 0 
145 1 0.48 70.00 24.3131 1.6116 0 
146 1 0.46 70.00 5.9335 8.1155 0 
147 1 0.47 70.00 13.6357 6.1198 0 
148 1 0.47 70.00 20.3074 1.2231 0 
149 1 0.42 70.00 1.9124 8.7085 0 
150 1 0.48 70.00 26.1412 3.2233 0 
151 1 0.48 70.00 16.8277 3.1897 0 
152 1 0.50 70.00 27.2329 8.6795 0 
153 1 0.42 70.00 10.1916 14.4112 0 
154 1 0.48 70.00 6.7999 7.4591 0 
155 1 0.47 70.00 18.3324 9.3711 0 
156 1 0.44 70.00 16.9158 6.4690 0 
157 1 0.53 70.00 22.0539 0.9316 0 
158 1 0.43 70.00 6.7036 5.2042 0 
159 1 0.46 70.00 22.8312 6.6119 0 
160 1 0.48 70.00 13.6784 8.4920 0 
161 1 0.42 70.00 2.1538 14.2986 0 
162 1 0.46 70.00 4.9946 7.5275 0 
163 1 0.48 70.00 24.4938 4.5106 0 
164 1 0.49 70.00 8.9265 13.0557 0 
165 1 0.46 70.00 18.0971 9.2956 0 
166 1 0.47 70.00 12.9822 9.7682 0 
167 1 0.53 70.00 15.7703 7.1695 0 
168 1 0.47 70.00 10.2209 11.7477 0 
169 1 0.47 70.00 11.8768 10.1075 0 
170 1 0.46 70.00 0.6367 10.2226 0 
171 1 0.53 70.00 0.9962 0.7470 0 
172 1 0.48 70.00 24.2381 12.3663 0 
173 1 0.49 70.00 18.2110 3.6414 0 
174 1 0.52 70.00 8.6808 0.9145 0 
175 1 0.43 70.00 6.9710 2.7145 0 
176 1 0.52 70.00 2.6772 12.6326 0 
177 1 0.51 70.00 19.3821 1.4502 0 
178 1 0.48 70.00 12.0758 13.1087 0 
179 1 0.51 70.00 25.3054 14.0407 0 
180 1 0.47 70.00 13.4576 0.6951 0 
181 1 0.50 70.00 19.3348 8.9944 0 
182 1 0.44 70.00 20.8678 7.2465 0 
183 1 0.47 70.00 4.0484 0.9545 0 
184 1 0.43 70.00 11.6711 5.6309 0 
185 1 0.41 70.00 26.5136 11.4459 0 
186 1 0.44 70.00 1.3556 8.7066 0 
187 1 0.47 70.00 2.7517 10.4745 0 
188 1 0.49 70.00 13.5574 4.2750 0 
189 1 0.45 70.00 20.2315 7.6029 0 
190 1 0.43 70.00 8.8372 9.0524 0 
191 1 0.44 70.00 2.8016 6.4420 0 
192 1 0.43 70.00 22.5730 7.0462 0 
193 1 0.47 70.00 13.3355 5.0822 0 
194 1 0.51 70.00 1.0272 10.6808 0 
195 1 0.48 70.00 8.1419 12.2686 0 
196 1 0.42 70.00 26.3297 8.3359 0 
197 1 0.50 70.00 25.1800 10.9269 0 
198 1 0.48 70.00 19.4087 12.9717 0 
199 1 0.44 70.00 27.7668 2.9954 0 
200 1 0.47 70.00 24.3885 6.3239 0 
201 1 0.54 70.00 25.4830 5.7099 0 
202 1 0.42 70.00 11.2462 4.0201 0 
203 1 0.48 70.00 4.6929 12.5351 0 
204 1 0.45 70.00 20.3059 2.3304 0 
205 1 0.53 70.00 12.8884 14.6238 0 
206 1 0.45 70.00 10.7860 2.1357 0 
207 1 0.49 70.00 4.2356 13.6288 0 
208 1 0.46 70.00 22.0623 9.5523 0 
209 1 0.50 70.00 12.2834 1.1322 0 
210 1 0.48 70.00 19.0529 1.9541 0 
211 1 0.48 70.00 4.4055 9.6029 0 
212 1 0.53 70.00 27.2847 0.9894 0 
213 1 0.47 70.00 27.0786 10.6611 0 
214 1 0.50 70.00 20.0124 8.3016 0 
215 1 0.56 70.00 21.9439 2.2794 0 
216 1 0.46 70.00 23.9930 10.4053 0 
217 1 0.49 70.00 6.7463 9.1877 0 
218 1 0.51 70.00 10.9144 3.0861 0 
219 1 0.44 70.00 27.0299 0.6352 0 
220 1 0.43 70.00 1.5939 10.3349 0 
221 1 0.43 70.00 1.0783 5.9842 0 
222 1 0.48 70.00 14.4393 1.7166 0 
223 1 0.45 70.00 3.7431 10.7874 0 
224 1 0.47 70.00 1.8107 3.1089 0 
225 1 0.42 70.00 2.3416 0.5889 0 
226 1 0.47 70.00 14.1712 5.7322 0 
227 1 0.47 70.00 3.4391 13.4758 0 
228 1 0.47 70.00 12.1448 11.8007 0 
229 1 0.45 70.00 4.1053 3.8751 0 
230 1 0.45 70.00 1.0145 6.8685 0 
231 1 0.45 70.00 13.7133 7.1943 0 
232 1 0.45 70.00 3.4864 4.8678 0 
233 1 0.50 70.00 17.8210 1.4838 0 
234 1 0.52 70.00 20.3697 12.7381 0 
235 1 0.48 70.00 2.6193 7.7456 0 
236 1 0.48 70.00 16.8294 6.0811 0 
237 1 0.54 70.00 22.9946 11.9462 0 
238 1 0.44 70.00 25.1192 13.3119 0 
239 1 0.46 70.00 9.4256 12.6105 0 
240 1 0.46 70.00 4.3229 10.3770 0 
241 1 0.49 70.00 7.0444 0.6987 0 
242 1 0.41 70.00 4.3094 1.4152 0 
243 1 0.48 70.00 10.4665 13.0148 0 
244 1 0.43 70.00 8.2531 3.1808 0 
245 1 0.48 70.00 15.5254 2.0569 0 
246 1 0.51 70.00 10.5649 11.8006 0 
247 1 0.49 70.00 21.0615 6.1624 0 
248 1 0.50 70.00 21.2017 10.2881 0 
249 1 0.46 70.00 26.7875 1.5718 0 
250 1 0.48 70.00 24.3558 13.1733 0 
251 1 0.46 70.00 3.9248 14.6113 0 
252 1 0.46 70.00 24.9804 1.6257 0 
253 1 0.44 70.00 3.0248 6.6427 0 
254 1 0.43 70.00 0.8045 13.9392 0 
255 1 0.52 70.00 4.7071 10.3593 0 
256 1 0.48 70.00 17.7607 9.2179 0 
257 1 0.46 70.00 10.5161 12.5137 0 
258 1 0.40 70.00 8.2996 11.4659 0 
259 1 0.45 70.00 7.6963 9.6319 0 
260 1 0.43 70.00 23.9949 4.2272 0 
261 1 0.44 70.00 21.0836 12.0533 0 
262 1 0.49 70.00 9.9004 9.4701 0 
263 1 0.48 70.00 19.5259 4.4978 0 
264 1 0.48 70.00 20.6175 6.0693 0 
265 1 0.50 70.00 27.4159 2.7310 0 
266 1 0.48 70.00 20.5499 12.1779 0 
267 1 0.49 70.00 22.4969 3.4583 0 
268 1 0.51 70.00 22.9910 6.9937 0 
269 1 0.51 70.00 18.0853 11.6852 0 
270 1 0.45 70.00 18.1593 6.7359 0 
271 1 0.49 70.00 9.2630 7.2640 0 
272 1 0.47 70.00 4.3459 10.8828 0 
273 1 0.50 70.00 24.3325 3.5989 0 
274 1 0.44 70.00 19.9795 13.0022 0 
275 1 0.40 70.00 14.0123 12.2442 0 
276 1 0.48 70.00 20.5879 10.6892 0 
277 1 0.46 70.00 18.8874 6.1357 0 
278 1 0.47 70.00 12.4690 1.7516 0 
279 1 0.47 70.00 6.0662 3.4085 0 
280 1 0.48 70.00 9.8012 12.4940 0 
281 1 0.46 70.00 4.1909 4.8527 0 
282 1 0.55 70.00 18.4899 3.0672 0 
283 1 0.41 70.00 21.1580 5.3461 0 
284 1 0.51 70.00 25.5522 2.0517 0 
285 1 0.53 70.00 16.6596 11.5074 0 
286 1 0.47 70.00 4.8265 2.7471 0 
287 1 0.45 70.00 17.3443 5.9220 0 
288 1 0.48 70.00 9.0088 13.7408 0 
289 1 0.44 70.00 2.4394 0.7999 0 
290 1 0.46 70.00 11.9921 0.7895 0 
291 1 0.44 70.00 1.1372 0.5834 0 
292 1 0.49 70.00 17.1033 0.7468 0 
293 1 0.46 70.00 12.0242 10.3938 0 
294 1 0.46 70.00 2.6398 4.6004 0 
295 1 0.48 70.00 2.8785 14.5758 0 
296 1 0.48 70.00 22.1948 4.4655 0 
297 1 0.49 70.00 22.3167 13.0326 0 
298 1 0.48 70.00 26.3742 1.3584 0 
299 1 0.48 70.00 9.8557 5.1407 0 
300 1 0.44 70.00 19.9895 11.6842 0 
301 1 0.48 70.00 20.4684 3.3268 0 
302 1 0.47 70.00 7.0386 3.2836 0 
303 1 0.45 70.00 16.4792 9.1788 0 
304 1 0.47 70.00 21.2660 11.4226 0 
305 1 0.50 70.00 4.4146 8.9968 0 
306 1 0.46 70.00 14.6317 11.0830 0 
307 1 0.47 70.00 16.4104 2.1408 0 
308 1 0.51 70.00 13.9830 13.2709 0 
309 1 0.43 70.00 15.2950 11.8663 0 
310 1 0.48 70.00 4.7726 4.6623 0 
311 1 0.47 70.00 6.1337 9.0663 0 
312 1 0.51 70.00 27.1220 11.1074 0 
313 1 0.47 70.00 9.4856 8.3624 0 
314 1 0.43 70.00 24.8944 4.3884 0 
315 1 0.44 70.00 9.9914 9.0678 0 
316 1 0.46 70.00 23.3679 4.3752 0 
317 1 0.49 70.00 9.6531 12.9270 0 
318 1 0.48 70.00 17.6382 13.9369 0 
319 1 0.48 70.00 6.0836 12.0742 0 
320 1 0.48 70.00 22.4787 5.9562 0 
321 1 0.48 70.00 1.7063 3.4088 0 
322 1 0.49 70.00 16.2327 14.4427 0 
323 1 0.47 70.00 18.8878 3.1637 0 
324 1 0.46 70.00 5.8681 12.6352 0 
325 1 0.41 70.00 8.4999 6.1568 0 
326 1 0.41 70.00 18.0493 8.4238 0 
327 1 0.48 70.00 27.0151 3.6154 0 
328 1 0.45 70.00 5.9189 13.6421 0 
329 1 0.46 70.00 2.6131 14.4222 0 
330 1 0.51 70.00 21.5060 13.4430 0 
331 1 0.44 70.00 26.5921 5.0849 0 
332 1 0.45 70.00 1.3398 11.7153 0 
333 1 0.45 70.00 25.4145 3.1075 0 
334 1 0.43 70.00 27.5267 1.6222 0 
335 1 0.45 70.00 13.2270 8.2218 0 
336 1 0.44 70.00 26.8209 7.2538 0 
337 1 0.49 70.00 7.9375 5.5014 0 
338 1 0.42 70.00 18.1713 8.9794 0 
339 1 0.47 70.00 9.3508 2.3050 0 
340 1 0.49 70.00 2.2741 11.3865 0 
341 1 0.52 70.00 24.6611 5.1073 0 
342 1 0.45 70.00 11.7738 10.5312 0 
343 1 0.48 70.00 19.7432 12.7144 0 
344 1 0.46 70.00 26.0507 12.3951 0 
345 1 0.49 70.00 23.7686 8.3701 0 
346 1 0.46 70.00 22.9338 13.4709 0 
347 1 0.43 70.00 22.6475 4.0863 0 
348 1 0.44 70.00 24.5005 1.1852 0 
349 1 0.47 70.00 4.3536 12.2408 0 
350 1 0.54 70.00 23.6926 14.6905 0 
351 1 0.46 70.00 10.2064 9.0459 0 
352 1 0.45 70.00 8.2609 10.4842 0 
353 1 0.50 70.00 21.0092 3.1015 0 
354 1 0.44 70.00 4.1933 9.8135 0 
355 1 0.45 70.00 21.7397 4.3980 0 
356 1 0.48 70.00 14.5794 6.5438 0 
357 1 0.49 70.00 3.4430 11.7727 0 
358 1 0.46 70.00 14.8438 10.5076 0 
359 1 0.49 70.00 11.8405 12.3091 0 
360 1 0.47 70.00 21.0209 3.8818 0 
361 1 0.47 70.00 19.6265 4.8639 0 
362 1 0.48 70.00 9.2753 8.2721 0 
363 1 0.46 70.00 6.2871 7.8857 0 
364 1 0.44 70.00 20.7861 2.9740 0 
365 1 0.51 70.00 7.4791 2.2201 0 
366 1 0.48 70.00 25.2763 5.5409 0 
367 1 0.42 70.00 20.6799 1.9763 0 
368 1 0.45 70.00 16.9953 0.5192 0 
369 1 0.46 70.00 25.6435 0.9877 0 
370 1 0.47 70.00 24.4967 0.5032 0 
371 1 0.46 70.00 25.6028 0.6958 0 
372 1 0.51 70.00 5.5227 10.2370 0 
373 1 0.47 70.00 26.0431 2.1366 0 
374 1 0.46 70.00 10.6470 2.2992 0 
375 1 0.47 70.00 27.1099 3.4302 0 
376 1 0.46 70.00 27.2373 12.2120 0 
377 1 0.45 70.00 15.7781 6.6600 0 
378 1 0.46 70.00 21.7408 7.1276 0 
379 1 0.46 70.00 17.6857 5.4072 0 
380 1 0.52 70.00 13.8027 1.4913 0 
381 1 0.47 70.00 1.2213 5.3962 0 
382 1 0.49 70.00 23.5521 14.2511 0 
383 1 0.45 70.00 7.2508 4.7126 0 
384 1 0.46 70.00 26.9763 12.0111 0 
385 1 0.52 70.00 27.3880 10.2901 0 
386 1 0.45 70.00 12.7340 13.4921 0 
387 1 0.43 70.00 2.2211 7.7854 0 
388 1 0.52 70.00 20.7972 1.4215 0 
389 1 0.46 70.00 21.1994 2.8086 0 
390 1 0.45 70.00 24.6908 9.7600 0 
391 1 0.51 70.00 13.8133 0.5751 0 
392 1 0.46 70.00 19.6645 2.9727 0 
393 1 0.49 70.00 16.6764 13.8414 0 
394 1 0.51 70.00 20.1138 11.8743 0 
395 1 0.48 70.00 27.7305 13.1833 0 
396 1 0.50 70.00 9.9397 8.2023 0 
397 1 0.51 70.00 7.5222 1.0024 0 
398 1 0.45 70.00 4.2552 4.1813 0 
399 1 0.49 70.00 22.6894 1.2097 0 
400 1 0.45 70.00 9.0403 8.0728 0 
401 1 0.52 70.00 6.3363 9.6379 0 
402 1 0.48 70.00 27.3707 9.3506 0 
403 1 0.40 70.00 25.9343 3.4309 0 
404 1 0.47 70.00 25.4268 11.7322 0 
405 1 0.47 70.00 15.2969 1.3660 0 
406 1 0.40 70.00 16.5929 1.4946 0 
407 1 0.49 70.00 15.9256 10.6092 0 
408 1 0.48 70.00 0.6817 13.0936 0 
409 1 0.48 70.00 16.2320 6.5150 0 
410 1 0.40 70.00 13.5431 9.4756 0 
411 1 0.45 70.00 18.5603 8.3587 0 
412 1 0.47 70.00 17.2756 5.4447 0 
413 1 0.42 70.00 25.2081 3.4289 0 
414 1 0.47 70.00 2.7867 8.9787 0 
415 1 0.43 70.00 1.3299 13.1776 0 
416 1 0.46 70.00 26.3841 12.6148 0 
417 1 0.46 70.00 24.8982 8.9247 0 
418 1 0.48 70.00 7.6618 5.1984 0 
419 1 0.41 70.00 17.7534 1.8763 0 
420 1 0.48 70.00 14.5170 5.0768 0 
421 1 0.40 70.00 8.6625 11.1226 0 
422 1 0.49 70.00 5.7437 1.0470 0 
423 1 0.48 70.00 14.7601 9.6475 0 
424 1 0.46 70.00 23.8107 7.5568 0 
425 1 0.43 70.00 19.5045 2.8183 0 
426 1 0.49 70.00 0.9826 1.6363 0 
427 1 0.49 70.00 6.3760 6.0755 0 
428 1 0.44 70.00 1.2850 3.0779 0 
429 1 0.45 70.00 3.8056 2.0569 0 
430 1 0.50 70.00 15.3705 5.5551 0 
431 1 0.42 70.00 2.1922 14.7875 0 
432 1 0.48 70.00 16.0489 4.4524 0 
433 1 0.48 70.00 11.9074 6.8447 0 
434 1 0.48 70.00 10.7840 4.0333 0 
435 1 0.44 70.00 7.7806 8.2996 0 
436 1 0.48 70.00 5.6411 10.6140 0 
437 1 0.51 70.00 23.2384 12.9268 0 
438 1 0.39 70.00 20.7373 11.4658 0 
439 1 0.48 70.00 2.6029 12.9925 0 
440 1 0.43 70.00 17.6545 12.7102 0 
441 1 0.47 70.00 3.3579 4.1360 0 
442 1 0.46 70.00 5.1490 6.2239 0 
443 1 0.47 70.00 3.6690 12.7855 0 
444 1 0.47 70.00 7.8319 0.8489 0 
445 1 0.47 70.00 13.8817 12.0101 0 
446 1 0.45 70.00 21.9601 7.0334 0 
447 1 0.45 70.00 1.0631 13.5702 0 
448 1 0.52 70.00 14.4555 14.5168 0 
449 1 0.48 70.00 24.2823 6.6068 0 
450 1 0.40 70.00 16.3900 4.9086 0 
451 1 0.45 70.00 16.3494 1.4271 0 
452 1 0.48 70.00 0.9872 5.7637 0 
453 1 0.45 70.00 4.3496 6.5090 0 
454 1 0.46 70.00 10.1478 0.7625 0 
455 1 0.47 70.00 14.5039 6.8726 0 
456 1 0.46 70.00 18.7500 2.8931 0 
457 1 0.42 70.00 25.4586 7.0530 0 
458 1 0.47 70.00 26.3973 13.5322 0 
459 1 0.45 70.00 11.4900 7.6133 0 
460 1 0.45 70.00 4.7230 0.5289 0 
461 1 0.48 70.00 27.6707 12.8206 0 
462 1 0.48 70.00 0.7092 7.5456 0 
463 1 0.54 70.00 25.2305 11.9985 0 
464 1 0.40 70.00 19.2199 9.3884 0 
465 1 0.50 70.00 5.1424 13.4574 0 
466 1 0.48 70.00 11.3179 11.6422 0 
467 1 0.52 70.00 11.9651 12.5924 0 
468 1 0.46 70.00 23.0484 1.2946 0 
469 1 0.48 70.00 16.9629 2.6570 0 
470 1 0.51 70.00 25.1385 6.5041 0 
471 1 0.41 70.00 14.7286 2.5711 0 
472 1 0.46 70.00 23.7014 11.8962 0 
473 1 0.49 70.00 2.8416 10.2289 0 
474 1 0.51 70.00 24.2545 5.3169 0 
475 1 0.49 70.00 13.6672 5.3581 0 
476 1 0.43 70.00 11.8259 2.2575 0 
477 1 0.48 70.00 11.1300 10.5483 0 
478 1 0.40 70.00 22.3956 4.9858 0 
479 1 0.52 70.00 21.5915 8.6811 0 
480 1 0.48 70.00 1.2204 2.6843 0 
481 1 0.51 70.00 17.2087 11.7796 0 
482 1 0.43 70.00 1.5398 9.5176 0 
483 1 0.47 70.00 18.1005 6.1155 0 
484 1 0.43 70.00 7.3842 5.7702 0 
485 1 0.52 70.00 19.2229 7.0957 0 
486 1 0.44 70.00 10.7593 2.7434 0 
487 1 0.48 70.00 7.4672 14.4452 0 
488 1 0.45 70.00 2.0531 11.4307 0 
489 1 0.47 70.00 4.6121 0.8004 0 
490 1 0.45 70.00 10.3246 4.2067 0 
491 1 0.46 70.00 6.6326 4.5421 0 
492 1 0.47 70.00 14.3055 4.1376 0 
493 1 0.50 70.00 10.3615 10.9993 0 
494 1 0.53 70.00 16.5605 7.4052 0 
495 1 0.44 70.00 17.6069 10.4587 0 
496 1 0.50 70.00 26.8080 2.0998 0 
497 1 0.53 70.00 3.6155 4.2263 0 
498 1 0.48 70.00 5.2197 12.7680 0 
499 1 0.47 70.00 7.2050 7.7542 0 
500 1 0.47 70.00 2.3233 4.6270 0 
501 1 0.50 70.00 14.9159 1.4025 0 
502 1 0.44 70.00 3.0155 2.9625 0 
503 1 0.48 70.00 6.4729 4.1864 0 
504 1 0.44 70.00 9.9177 9.6904 0 
505 1 0.46 70.00 15.8336 9.8534 0 
506 1 0.45 70.00 17.2857 11.2025 0 
507 1 0.48 70.00 27.3071 5.3945 0 
508 1 0.46 70.00 8.2146 11.0967 0 
509 1 0.45 70.00 1.8933 6.8066 0 
510 1 0.50 70.00 3.0147 4.2695 0 
511 1 0.45 70.00 22.9156 14.5453 0 
512 1 0.50 70.00 14.9730 0.7448 0 
513 1 0.48 70.00 6.2902 8.1865 0 
514 1 0.49 70.00 5.8785 2.6707 0 
515 1 0.48 70.00 1.9105 9.6163 0 
516 1 0.44 70.00 25.7787 10.8721 0 
517 1 0.45 70.00 15.6738 6.1331 0 
518 1 0.49 70.00 5.4911 12.0623 0 
519 1 0.51 70.00 11.0502 4.0891 0 
520 1 0.52 70.00 9.5984 3.0814 0 
521 1 0.43 70.00 5.6548 13.5101 0 
522 1 0.51 70.00 7.7909 14.4175 0 
523 1 0.46 70.00 3.1314 2.5290 0 
524 1 0.48 70.00 24.2890 2.5418 0 
525 1 0.50 70.00 4.5400 2.7253 0 
526 1 0.48 70.00 6.0834 1.0241 0 
527 1 0.47 70.00 1.7807 14.0209 0 
528 1 0.46 70.00 7.5241 12.3171 0 
529 1 0.51 70.00 10.2732 9.7511 0 
530 1 0.52 70.00 7.0648 9.1998 0 
531 1 0.47 70.00 12.7634 8.2158 0 
532 1 0.48 70.00 14.2331 4.4705 0 
533 1 0.43 70.00 24.9288 10.5718 0 
534 1 0.45 70.00 13.7058 10.5890 0 
535 1 0.45 70.00 17.0480 10.4723 0 
536 1 0.46 70.00 2.7826 5.9229 0 
537 1 0.50 70.00 9.2251 6.9838 0 
538 1 0.48 70.00 4.1020 2.9118 0 
539 1 0.43 70.00 21.5253 13.9272 0 
540 1 0.45 70.00 0.8984 9.4519 0 
541 1 0.42 70.00 9.3604 12.8984 0 
542 1 0.51 70.00 19.0219 10.3054 0 
543 1 0.45 70.00 11.2857 10.3382 0 
544 1 0.44 70.00 4.1373 14.6863 0 
545 1 0.49 70.00 16.8750 2.4735 0 
546 1 0.45 70.00 12.1587 14.1275 0 
547 1 0.53 70.00 20.5220 7.9229 0 
548 1 0.49 70.00 21.8508 12.0588 0 
549 1 0.48 70.00 1.9342 8.2119 0 
550 1 0.43 70.00 19.2643 1.6676 0 
551 1 0.45 70.00 24.5937 13.5872 0 
552 1 0.53 70.00 5.8803 7.4608 0 
553 1 0.48 70.00 3.6587 0.7762 0 
554 1 0.46 70.00 9.4434 1.5755 0 
555 1 0.49 70.00 20.3573 3.8062 0 
556 1 0.41 70.00 23.8307 13.0418 0 
557 1 0.47 70.00 13.6144 13.6042 0 
558 1 0.45 70.00 10.5485 7.7121 0 
559 1 0.51 70.00 8.1891 4.3827 0 
560 1 0.43 70.00 26.0316 10.8093 0 
561 1 0.47 70.00 15.5999 9.1223 0 
562 1 0.53 70.00 1.8429 14.3586 0 
563 1 0.42 70.00 18.3991 8.2304 0 
564 1 0.45 70.00 23.6218 6.5813 0 
565 1 0.49 70.00 8.3369 11.8124 0 
566 1 0.49 70.00 5.1609 10.8135 0 
567 1 0.54 70.00 7.7605 12.7436 0 
568 1 0.44 70.00 23.2943 14.6158 0 
569 1 0.47 70.00 23.3563 12.7295 0 
570 1 0.43 70.00 18.3903 10.4695 0 
571 1 0.43 70.00 21.8750 6.1469 0 
572 1 0.49 70.00 4.6799 1.5913 0 
573 1 0.45 70.00 8.4273 13.5162 0 
574 1 0.45 70.00 5.2563 3.0672 0 
575 1 0.49 70.00 22.1205 2.4945 0 
576 1 0.42 70.00 18.7879 10.3585 0 
577 1 0.49 70.00 17.6245 8.9275 0 
578 1 0.50 70.00 4.5745 14.2949 0 
579 1 0.50 70.00 21.7296 12.5935 0 
580 1 0.53 70.00 10.0589 0.5092 0 
581 1 0.45 70.00 3.4013 3.1994 0 
582 1 0.47 70.00 18.6121 10.0829 0 
583 1 0.48 70.00 24.7297 12.2038 0 
584 1 0.43 70.00 12.9244 7.6696 0 
585 1 0.51 70.00 27.3350 14.5956 0 
586 1 0.48 70.00 7.7023 5.5978 0 
587 1 0.42 70.00 24.6121 11.6219 0 
588 1 0.45 70.00 18.1009 5.3724 0 
589 1 0.42 70.00 23.0936 5.1392 0 
590 1 0.47 70.00 23.5548 6.8924 0 
591 1 0.51 70.00 22.1536 9.3610 0 
592 1 0.46 70.00 17.4020 6.4778 0 
593 1 0.51 70.00 9.6117 0.8410 0 
594 1 0.46 70.00 21.9397 4.7687 0 
595 1 0.45 70.00 26.3028 9.0782 0 
596 1 0.51 70.00 25.3978 13.2435 0 
597 1 0.48 70.00 6.2107 12.6371 0 
598 1 0.48 70.00 17.6822 4.3646 0 
599 1 0.52 70.00 18.6785 1.3731 0 
600 1 0.45 70.00 23.1186 13.8536 0 
601 1 0.45 70.00 13.8240 12.5068 0 
602 1 0.47 70.00 0.6646 12.0115 0 
603 1 0.47 70.00 14.3132 8.2667 0 
604 1 0.48 70.00 11.5574 11.8042 0 
605 1 0.46 70.00 13.6261 7.4030 0 
606 1 0.42 70.00 5.3276 4.1132 0 
607 1 0.43 70.00 25.7489 14.7133 0 
608 1 0.49 70.00 21.4885 4.0994 0 
609 1 0.41 70.00 6.4418 10.8683 0 
610 1 0.50 70.00 3.4843 2.5903 0 
611 1 0.44 70.00 24.4582 4.1322 0 
612 1 0.47 70.00 18.4088 5.5083 0 
613 1 0.50 70.00 12.1798 7.3992 0 
614 1 0.49 70.00 27.0635 4.2311 0 
615 1 0.47 70.00 17.1446 12.8574 0 
616 1 0.50 70.00 24.7145 8.4327 0 
617 1 0.40 70.00 24.3914 6.9123 0 
618 1 0.46 70.00 16.1428 1.2944 0 
619 1 0.50 70.00 8.4946 9.8168 0 
620 1 0.49 70.00 16.9107 10.6441 0 
621 1 0.45 70.00 1.1017 6.4455 0 
622 1 0.43 70.00 10.4432 10.0542 0 
623 1 0.47 70.00 5.0929 12.5443 0 
624 1 0.47 70.00 23.4796 12.9754 0 
625 1 0.46 70.00 18.3667 6.6557 0 
626 1 0.46 70.00 2.2902 9.7182 0 
627 1 0.48 70.00 13.9476 8.2449 0 
628 1 0.42 70.00 6.7214 12.7639 0 
629 1 0.47 70.00 20.8828 1.7156 0 
630 1 0.49 70.00 22.2517 11.1195 0 
631 1 0.49 70.00 13.9704 14.4143 0 
632 1 0.52 70.00 26.5920 7.6793 0 
633 1 0.46 70.00 23.2552 7.0650 0 
634 1 0.52 70.00 10.5966 1.2793 0 
635 1 0.48 70.00 14.9048 11.4190 0 
636 1 0.52 70.00 1.1786 7.2144 0 
637 1 0.49 70.00 8.6030 4.3720 0 
638 1 0.42 70.00 3.2371 2.0309 0 
639 1 0.45 70.00 16.8541 8.1481 0 
640 1 0.51 70.00 27.5625 13.9161 0 
641 1 0.47 70.00 18.2676 13.7300 0 
642 1 0.52 70.00 2.2254 12.0119 0 
643 1 0.45 70.00 17.1306 3.4437 0 
644 1 0.44 70.00 26.7414 8.2461 0 
645 1 0.51 70.00 20.5238 0.9537 0 
646 1 0.46 70.00 12.5537 11.8483 0 
647 1 0.50 70.00 7.5149 4.8390 0 
648 1 0.49 70.00 13.3324 14.4023 0 
649 1 0.49 70.00 7.7162 11.1751 0 
650 1 0.42 70.00 14.9442 7.8213 0 
651 1 0.50 70.00 1.5804 11.8840 0 
652 1 0.52 70.00 1.3101 6.1408 0 
653 1 0.46 70.00 26.1210 6.9408 0 
654 1 0.51 70.00 21.9030 8.0058 0 
655 1 0.48 70.00 8.7455 7.4396 0 
656 1 0.51 70.00 10.2311 10.7104 0 
657 1 0.47 70.00 9.9129 11.9763 0 
658 1 0.48 70.00 2.3431 6.4935 0 
659 1 0.46 70.00 27.7435 13.5062 0 
660 1 0.52 70.00 11.9575 2.6103 0 
661 1 0.46 70.00 19.2005 9.1468 0 
662 1 0.44 70.00 5.4267 8.8071 0 
663 1 0.48 70.00 11.1039 3.7869 0 
664 1 0.37 70.00 9.2567 1.9597 0 
665 1 0.49 70.00 18.7849 1.6247 0 
666 1 0.47 70.00 26.8074 4.6066 0 
667 1 0.55 70.00 26.4750 5.6992 0 
668 1 0.48 70.00 6.1912 6.6550 0 
669 1 0.46 70.00 24.5621 8.9634 0 
670 1 0.47 70.00 26.3863 3.6104 0 
671 1 0.49 70.00 22.8339 5.5242 0 
672 1 0.52 70.00 23.8425 9.8967 0 
673 1 0.48 70.00 9.9360 3.4636 0 
674 1 0.49 70.00 12.0177 13.5537 0 
675 1 0.44 70.00 2.4716 1.4666 0 
676 1 0.50 70.00 10.1701 1.1399 0 
677 1 0.44 70.00 23.4321 13.8758 0 
678 1 0.44 70.00 17.5365 3.7541 0 
679 1 0.50 70.00 5.6005 9.6183 0 
680 1 0.47 70.00 22.1224 6.2494 0 
681 1 0.47 70.00 1.1328 1.9412 0 
682 1 0.49 70.00 10.9807 5.3367 0 
683 1 0.50 70.00 20.6025 4.0383 0 
684 1 0.47 70.00 1.3795 4.8353 0 
685 1 0.41 70.00 11.6542 4.3041 0 
686 1 0.50 70.00 0.7369 4.1610 0 
687 1 0.47 70.00 8.7518 3.6972 0 
688 1 0.44 70.00 9.4518 8.7330 0 
689 1 0.53 70.00 27.0848 11.5308 0 
690 1 0.50 70.00 19.8294 1.1075 0 
691 1 0.42 70.00 23.0829 9.4777 0 
692 1 0.44 70.00 18.5559 12.9021 0 
693 1 0.45 70.00 4.7662 7.8416 0 
694 1 0.41 70.00 9.6498 9.0704 0 
695 1 0.40 70.00 1.8279 3.9516 0 
696 1 0.47 70.00 14.0505 8.7651 0 
697 1 0.53 70.00 23.1081 3.9026 0 
698 1 0.50 70.00 3.2631 5.6423 0 
699 1 0.50 70.00 20.6769 14.6778 0 
700 1 0.48 70.00 1.3459 3.8475 0 
701 1 0.48 70.00 1.8058 11.3331 0 
702 1 0.47 70.00 7.1376 4.2529 0 
703 1 0.45 70.00 16.5087 7.6949 0 
704 1 0.40 70.00 15.4331 8.0738 0 
705 1 0.47 70.00 17.4894 11.8535 0 
706 1 0.50 70.00 16.2143 5.3140 0 
707 1 0.47 70.00 25.2241 6.8363 0 
708 1 0.43 70.00 7.9860 5.9194 0 
709 1 0.47 70.00 16.2303 2.6982 0 
710 1 0.42 70.00 17.4512 13.7089 0 
711 1 0.46 70.00 24.1072 3.0292 0 
712 1 0.49 70.00 3.6548 14.5635 0 
713 1 0.48 70.00 18.8124 2.5291 0 
714 1 0.50 70.00 3.8952 1.0882 0 
715 1 0.51 70.00 23.0775 7.6317 0 
716 1 0.50 70.00 3.9771 5.9644 0 
717 1 0.49 70.00 7.4512 4.0626 0 
718 1 0.54 70.00 11.5720 2.2084 0 
719 1 0.42 70.00 15.2233 3.5089 0 
720 1 0.44 70.00 26.5689 12.0144 0 
721 1 0.40 70.00 27.3433 13.4811 0 
722 1 0.47 70.00 15.9953 13.9657 0 
723 1 0.52 70.00 6.1035 10.2186 0 
724 1 0.44 70.00 4.2534 8.0643 0 
725 1 0.43 70.00 16.2900 12.2883 0 
726 1 0.46 70.00 7.4386 10.3353 0 
727 1 0.48 70.00 21.7499 11.4129 0 
728 1 0.48 70.00 12.4960 7.1581 0 
729 1 0.46 70.00 13.0431 11.4075 0 
730 1 0.41 70.00 8.7447 5.0739 0 
731 1 0.44 70.00 12.5245 8.8755 0 
732 1 0.48 70.00 14.9310 10.1144 0 
733 1 0.48 70.00 17.2442 14.4860 0 
734 1 0.46 70.00 3.2898 11.0571 0 
735 1 0.51 70.00 11.8075 12.0228 0 
736 1 0.44 70.00 11.0484 13.1755 0 
737 1 0.46 70.00 14.9294 5.5165 0 
738 1 0.47 70.00 4.6256 8.2216 0 
739 1 0.45 70.00 17.8234 6.1482 0 
740 1 0.46 70.00 5.5985 4.6302 0 
741 1 0.46 70.00 5.1601 5.4423 0 
742 1 0.45 70.00 2.5764 9.4031 0 
743 1 0.43 70.00 15.4594 13.9261 0 
744 1 0.45 70.00 15.2598 2.1273 0 
745 1 0.43 70.00 12.4609 11.5556 0 
746 1 0.46 70.00 12.9354 14.1791 0 
747 1 0.45 70.00 27.0811 4.5706 0 
748 1 0.46 70.00 20.1637 11.4592 0 
749 1 0.49 70.00 24.9918 12.9973 0 
750 1 0.46 70.00 15.3704 9.8162 0 
751 1 0.51 70.00 4.9760 9.4420 0 
752 1 0.49 70.00 19.2137 0.7826 0 
753 1 0.45 70.00 8.1992 10.2012 0 
754 1 0.50 70.00 14.9412 12.8514 0 
755 1 0.50 70.00 19.0963 1.3938 0 
756 1 0.47 70.00 2.6830 8.2240 0 
757 1 0.50 70.00 15.0938 1.5662 0 
758 1 0.48 70.00 2.8817 9.3859 0 
759 1 0.45 70.00 6.6493 0.8095 0 
760 1 0.50 70.00 8.3407 10.7381 0 
761 1 0.48 70.00 27.4900 4.3935 0 
762 1 0.44 70.00 21.6432 9.3128 0 
763 1 0.49 70.00 22.2267 2.2316 0 
764 1 0.46 70.00 12.0421 1.6911 0 
765 1 0.46 70.00 24.5899 11.0848 0 
766 1 0.50 70.00 9.0651 1.2453 0 
767 1 0.46 70.00 19.8737 2.7048 0 
768 1 0.46 70.00 8.2477 8.7806 0 
769 1 0.44 70.00 11.1182 4.7599 0 
770 1 0.45 70.00 11.8239 7.6080 0 
771 1 0.49 70.00 9.5090 3.3683 0 
772 1 0.46 70.00 23.2835 2.2776 0 
773 1 0.43 70.00 25.8240 4.3651 0 
774 1 0.52 70.00 6.0380 12.4244 0 
775 1 0.47 70.00 6.3532 2.7494 0 
776 1 0.51 70.00 4.8226 11.2255 0 
777 1 0.45 70.00 26.0561 12.7312 0 
778 1 0.42 70.00 6.0349 0.5487 0 
779 1 0.50 70.00 27.3112 1.6705 0 
780 1 0.46 70.00 11.5945 7.1433 0 
781 1 0.44 70.00 7.4544 7.0638 0 
782 1 0.47 70.00 19.3991 6.1579 0 
783 1 0.43 70.00 4.6702 9.2978 0 
784 1 0.45 70.00 12.0067 0.5611 0 
785 1 0.46 70.00 27.0092 5.2018 0 
786 1 0.46 70.00 27.6644 3.3513 0 
787 1 0.49 70.00 21.8076 2.5200 0 
788 1 0.48 70.00 0.6346 4.3711 0 
789 1 0.44 70.00 19.4867 7.2844 0 
790 1 0.47 70.00 23.8197 11.3053 0 
791 1 0.48 70.00 24.9659 9.9140 0 
792 1 0.47 70.00 14.4001 13.4972 0 
793 1 0.42 70.00 23.6836 14.0537 0 
794 1 0.38 70.00 22.1499 13.7453 0 
795 1 0.41 70.00 27.0272 14.1536 0 
796 1 0.51 70.00 10.7015 13.3856 0 
797 1 0.48 70.00 18.8860 6.8783 0 
798 1 0.45 70.00 9.5323 1.8167 0 
799 1 0.48 70.00 17.9897 0.9012 0 
800 1 0.51 70.00 11.3354 4.6982 0 
801 1 0.47 70.00 8.4165 7.9043 0 
802 1 0.46 70.00 3.9526 12.8599 0 
803 1 0.51 70.00 17.2923 7.6348 0 
804 1 0.49 70.00 4.5293 1.4269 0 
805 1 0.48 70.00 11.5460 10.2638 0 
806 1 0.44 70.00 14.2932 9.6800 0 
807 1 0.45 70.00 26.5230 1.0310 0 
808 1 0.44 70.00 24.5255 3.1627 0 
809 1 0.43 70.00 8.3091 7.5924 0 
810 1 0.49 70.00 3.2418 14.0930 0 
811 1 0.47 70.00 2.2648 7.4659 0 
812 1 0.49 70.00 4.0504 14.4354 0 
813 1 0.45 70.00 16.4776 6.8959 0 
814 1 0.54 70.00 12.1180 1.4728 0 
815 1 0.53 70.00 3.6645 10.3054 0 
816 1 0.46 70.00 0.5194 7.0323 0 
817 1 0.50 70.00 13.0018 11.9515 0 
818 1 0.48 70.00 10.0661 7.2492 0 
819 1 0.47 70.00 12.9291 10.6684 0 
820 1 0.44 70.00 23.9508 6.6457 0 
821 1 0.46 70.00 15.1670 4.3042 0 
822 1 0.47 70.00 26.6003 3.7088 0 
823 1 0.49 70.00 7.8133 10.1828 0 
824 1 0.43 70.00 19.9563 11.1161 0 
825 1 0.46 70.00 15.4241 6.7939 0 
826 1 0.48 70.00 6.7781 10.4964 0 
827 1 0.49 70.00 0.5658 8.3949 0 
828 1 0.41 70.00 25.6484 12.1725 0 
829 1 0.51 70.00 14.2451 6.1850 0 
830 1 0.48 70.00 17.7309 2.1352 0 
831 1 0.48 70.00 11.0825 13.7911 0 
832 1 0.49 70.00 25.1441 10.3677 0 
833 1 0.50 70.00 7.7896 9.0181 0 
834 1 0.51 70.00 18.0600 7.8001 0 
835 1 0.47 70.00 1.0792 7.7978 0 
836 1 0.43 70.00 16.4749 4.6672 0 
837 1 0.45 70.00 24.9244 9.1432 0 
838 1 0.50 70.00 6.3623 7.5902 0 
839 1 0.45 70.00 11.1124 7.9425 0 
840 1 0.47 70.00 24.4619 9.9301 0 
841 1 0.47 70.00 27.5249 11.8880 0 
842 1 0.42 70.00 12.0646 4.8015 0 
843 1 0.45 70.00 3.7445 3.5994 0 
844 1 0.41 70.00 15.5411 0.5626 0 
845 1 0.45 70.00 1.7585 10.0362 0 
846 1 0.46 70.00 18.3187 4.2541 0 
847 1 0.53 70.00 19.6218 12.1966 0 
848 1 0.46 70.00 1.7835 10.6487 0 
849 1 0.47 70.00 15.1468 7.9295 0 
850 1 0.47 70.00 6.1518 14.3978 0 
851 1 0.45 70.00 18.7763 4.3028 0 
852 1 0.48 70.00 20.3890 9.4446 0 
853 1 0.43 70.00 13.1003 4.3729 0 
854 1 0.47 70.00 5.4986 11.5949 0 
855 1 0.55 70.00 24.9120 8.2638 0 
856 1 0.44 70.00 12.1865 2.9929 0 
857 1 0.47 70.00 8.8497 8.7808 0 