ITEM: TIMESTEP
0
ITEM: NUMBER OF ATOMS
840
ITEM: BOX BOUNDS pp pp pp
0.0000000000000000e+00 2.8000000000000000e+01
0.0000000000000000e+00 1.5000000000000000e+01
-1.0000000000000000e+00 1.0000000000000000e+00
ITEM: ATOMS x y vx vy 
5.2496 12.0095 0.124714 0.00454644 
4.6857 5.7952 0.13256 -0.0480774 
7.2416 12.962 -0.0310046 -0.0431118 
0.6635 1.5493 -0.0777506 -0.132506 
10.1963 12.5821 0.169603 0.0156694 
12.7747 7.6945 -0.126452 0.00928861 
2.3364 11.1711 -0.0498913 0.0148074 
5.2454 10.9505 0.127107 -0.107236 
4.0561 2.335 0.38324 -0.185057 
9.7025 7.0201 0.385501 0.218935 
0.5644 8.7907 -0.123971 0.126519 
10.4822 1.8095 0.138503 0.181889 
12.9524 6.7977 -0.265505 0.14101 
10.1668 11.8197 -0.058478 -0.0920967 
10.9669 5.2008 0.00254354 0.127778 
8.6002 10.8188 -0.0411717 0.117856 
2.1912 3.7291 -0.0122122 -0.0864861 
11.9912 9.2279 0.155416 0.195673 
7.1096 5.4785 -0.196479 0.104164 
2.3778 14.3349 0.0654238 0.00184383 
10.2805 2.7957 0.109425 0.123935 
8.2603 5.98 -0.0754749 -0.140839 
2.3244 5.3241 0.0440707 0.142061 
13.7278 4.1071 -0.0660574 0.258508 
12.3546 3.9236 0.0797348 -0.167309 
0.7112 14.4375 -0.239407 0.0955367 
8.9183 0.6703 -0.0864313 -0.0143721 
7.1069 4.686 0.252417 -0.0787248 
13.3906 1.6262 0.0553184 -0.00662523 
0.9997 8.0689 -0.199335 0.165505 
11.9698 12.0382 0.127667 0.103978 
3.8009 5.6883 -0.0611046 0.135432 
2.8308 2.8561 -0.106031 -0.282371 
6.5761 10.2758 0.152896 0.0628717 
11.8455 3.122 0.26088 -0.13299 
9.3637 7.4311 -0.251235 -0.251403 
6.1769 6.4523 0.16951 -0.280624 
9.6157 9.5825 0.238437 0.0324085 
12.4625 3.4664 -0.010078 0.321983 
8.8631 3.7427 0.208849 -0.246245 
1.8455 2.4656 -0.119723 0.0416822 
3.809 5.9113 -0.158572 0.0621387 
8.2672 13.7376 0.021464 0.0392367 
5.1759 9.5023 0.248098 -0.178479 
13.4397 6.2282 -0.0170856 0.0938889 
6.9967 12.8693 -0.0203451 0.00936322 
12.8237 11.5384 0.285478 -0.00850644 
13.8958 5.0199 -0.115614 -0.24585 
7.7474 2.6182 -0.0289135 0.00313332 
11.0129 6.9038 -0.0025953 0.0288178 
6.8113 2.6763 0.416183 0.14802 
13.6936 2.9301 -0.108113 -0.248448 
5.753 4.3938 -0.108577 0.193989 
1.4709 5.2997 -0.0771804 -0.136507 
1.4493 13.0284 -0.0563093 -0.118458 
5.3623 6.3791 -0.168611 -0.0445763 
8.4482 2.4661 0.119662 -0.0304156 
1.9077 14.3701 0.0505909 -0.0619261 
2.3765 10.7269 -0.031569 -0.0223189 
11.585 8.1433 -0.0397802 -0.0565074 
6.4684 2.7645 0.117557 0.166948 
9.6273 10.5105 0.0439406 0.00142582 
6.2551 3.6231 0.047653 0.254054 
10.207 9.1785 0.00735986 -0.174831 
4.8592 7.0087 -0.10926 0.00486907 
13.2564 13.7698 0.113287 -0.119167 
7.8001 3.1435 -0.345041 -0.151252 
1.0334 13.2052 -0.283417 -0.0174587 
5.6038 8.9659 -0.0303673 -0.187611 
12.1647 11.7317 0.00615403 0.112192 
4.7451 14.0437 0.10146 -0.124787 
7.8271 11.5109 -0.196461 -0.0818769 
10.3676 6.395 -0.0588284 0.225999 
7.5953 12.3913 0.345332 -0.127807 
3.1384 3.6007 -0.0194523 0.0437213 
8.9697 2.9364 0.0587087 -0.103967 
11.7317 5.6813 0.290975 -0.0839323 
9.1077 7.452 0.097017 0.0492235 
6.2968 13.3323 -0.0226026 0.160472 
3.8318 11.0325 -0.0455042 -0.213464 
12.2033 9.3451 0.0055617 0.0421368 
7.1683 2.6675 -0.188991 0.00515107 
0.8553 11.0835 0.0461462 0.0513346 
4.2638 5.1287 0.219361 -0.194088 
12.3276 4.4248 0.0381946 -0.075926 
3.1931 8.5555 -0.0791494 0.054475 
11.3214 9.4464 -0.00888536 -0.0372512 
13.4433 4.0062 -0.0735595 -0.00745884 
4.2635 1.9802 0.01442 -0.233791 
2.9453 2.557 -0.00521002 -0.0843169 
6.9795 2.2175 -0.00808709 0.151953 
12.1457 3.7746 0.0732804 0.170638 
6.4627 11.1087 0.201613 -0.189302 
4.4076 3.5405 -0.0915869 0.130603 
3.2078 5.2531 -0.271659 0.00526725 
5.7542 5.4205 0.0617203 0.127871 
1.8904 5.3607 0.0662056 -0.0764334 
12.6438 6.4735 0.020336 0.060834 
9.1018 6.5176 0.187053 -0.0383308 
10.2556 9.4587 -0.0799405 0.0622058 
3.1711 4.0475 -0.0624841 -0.1174 
7.0886 6.5123 -0.154182 0.0453535 
13.8902 11.8751 -0.0919442 0.105938 
1.7497 7.531 -0.061821 -0.1038 
4.3113 3.1153 0.162601 -0.00674382 
2.3236 6.1481 0.11272 -0.0774203 
3.5971 12.0436 0.116785 -0.00486157 
12.0818 8.1644 -0.121976 0.0654893 
3.2562 6.6746 0.0926178 -0.0998031 
8.9048 1.4551 -0.0580168 0.110544 
2.4476 3.9362 -0.0571749 0.140515 
9.4946 1.3621 0.219306 0.076609 
0.8781 3.1505 0.120756 0.139882 
5.2093 13.4411 0.16325 -0.214895 
2.0099 4.8267 -0.250245 0.128071 
8.136 14.5879 0.208008 -0.129621 
5.012 10.4124 0.0450008 0.278011 
4.2527 9.8141 0.0242775 0.0104021 
5.6234 1.2523 0.0264149 -0.143553 
1.4197 5.8388 -0.0248768 0.0339365 
13.6659 6.5219 0.0251715 0.0716762 
9.4738 4.7405 -0.125402 -0.0488282 
4.9897 1.7811 -0.272631 0.264629 
4.194 12.3619 -0.137762 -0.173086 
11.841 13.6198 -0.252408 -0.0454977 
1.6466 13.4594 0.178444 -0.0278404 
13.08 4.7095 0.074449 0.137469 
13.7408 7.4867 0.0839717 0.137869 
13.684 1.7011 -0.0190716 -0.290287 
7.3485 9.8909 0.0344914 -0.0045363 
9.8905 11.9409 -0.167916 -0.0917641 
13.9081 12.7349 0.120946 -0.163545 
10.7753 12.8871 0.0585189 -0.0312638 
10.8286 9.7369 0.148824 -0.119368 
8.343 11.9215 0.411785 -0.0752662 
8.6944 7.6624 0.120539 0.0754516 
2.8036 13.3456 -0.0207776 -0.0882443 
6.7849 10.5378 0.0109355 0.0770807 
7.8088 8.3419 -0.0707758 0.245823 
10.4401 8.0858 -0.035966 -0.103806 
11.5771 4.4507 -0.130356 -0.123743 
7.8199 7.3226 0.166265 -0.252816 
6.1088 2.8256 -0.28056 -0.0937404 
4.8479 9.4574 -0.293651 0.0557428 
8.3915 12.2772 -0.0261304 0.0249776 
10.761 10.2363 0.0160282 0.068732 
11.288 9.8079 0.158194 -0.0349712 
13.4014 11.093 0.0271795 0.0682851 
10.1165 4.8738 -0.0535184 0.174332 
1.0029 4.9067 -0.201742 -0.0618126 
9.6235 11.8862 0.147588 0.151849 
6.8396 9.6101 0.270646 -0.113524 
6.5387 7.8039 -0.112676 0.124716 
11.5333 4.7109 0.0530972 0.136982 
7.3503 3.2279 0.152443 0.15488 
13.8557 5.9441 0.0355696 -0.00915192 
7.1952 3.4211 -0.0965576 -0.112968 
13.3189 0.5457 0.132382 -0.235734 
10.6659 8.0789 0.116126 -0.231469 
5.8264 6.9538 -0.108926 0.125825 
9.2069 10.7005 -0.177133 0.133695 
3.3818 3.3893 0.323129 -0.0808604 
2.2761 9.0945 -0.0373403 0.294405 
11.9572 9.7148 -0.033907 -0.249799 
3.1177 14.3371 0.140253 -0.196837 
11.8174 3.8931 -0.140078 -0.0927945 
11.8495 10.6011 0.0283133 0.185644 
11.4859 4.1491 0.0996844 0.0447125 
2.5982 8.8167 -0.211269 0.0843724 
2.3579 9.6915 0.188564 0.0349879 
2.013 10.0491 -0.00117866 -0.222068 
12.3598 11.7823 -0.0642235 -0.0988993 
5.4626 7.0812 0.100099 -0.0955331 
9.7608 9.335 0.0249891 0.273169 
11.4597 10.1964 0.0163744 -0.213201 
5.9207 7.4998 -0.162797 0.198201 
3.3394 11.3602 -0.110439 0.111968 
13.8995 0.562 -0.0805711 -0.0596084 
9.6415 3.2957 0.0792099 -0.0592864 
6.8817 6.1432 -0.0950765 0.0775496 
4.6739 4.2677 -0.0429841 0.0930408 
1.915 11.6393 0.0557154 0.0923187 
7.1266 8.1757 -0.149378 -0.217289 
1.4677 3.5514 0.0856425 0.073402 
6.8769 8.767 -0.0962794 0.0558476 
3.4383 12.5823 0.177685 -0.290721 
0.672 10.4283 -0.0512559 -0.186289 
0.93 7.2181 -0.230834 -0.147717 
6.9098 13.7266 -0.23852 -0.0277978 
12.2837 12.5329 -0.15479 -0.0937791 
1.1306 5.7052 -0.000847756 0.132316 
0.8513 5.2579 0.00508044 0.1 
3.269 14.708 0.0175406 0.0216038 
11.8676 7.447 0.286412 0.283531 
0.8662 8.8637 -0.0352498 0.163106 
6.3102 9.5824 0.194013 0.331967 
9.3191 14.7449 0.0370834 -0.327362 
9.4141 6.481 -0.137906 -0.185534 
2.3983 2.2452 -0.0647798 0.0454259 
4.0594 12.1806 0.165588 -0.194338 
10.5256 7.0852 0.110527 0.103798 
12.5533 10.9736 0.287755 0.00760873 
2.8584 3.3847 0.0243546 0.111805 
13.6889 12.6594 0.0139368 0.0262632 
1.4587 8.9235 -0.0893436 -0.0365723 
11.3306 14.2811 0.0173324 0.0304045 
7.0101 14.5274 -0.326055 0.168409 
4.0677 3.9156 -0.0468231 -0.00708068 
9.7736 4.2996 0.150662 0.143289 
3.3189 2.0707 0.189898 -0.0571242 
1.5605 1.7736 0.337208 0.163921 
9.8231 4.5385 -0.0556508 -0.0364904 
4.9633 7.5056 0.192494 0.128766 
6.8932 7.1056 0.0535943 -0.156084 
9.9659 13.4325 -0.155548 0.120873 
7.5465 0.7944 -0.152166 0.0473109 
4.5452 14.2069 -0.270596 -0.115884 
6.5325 10.4819 -0.124624 0.0231214 
8.9318 9.8764 0.198458 0.0705996 
5.7689 12.4564 0.0808099 -0.178532 
3.3113 5.7823 -0.00592605 -0.28679 
12.6922 4.176 -0.147315 0.0826991 
6.3452 10.5578 0.124076 0.206469 
11.9943 12.697 0.0513741 -0.0449948 
11.3252 8.7194 0.0200474 0.215875 
9.8949 11.025 0.0318092 -0.124104 
11.4021 4.3525 -0.16627 -0.274937 
1.6087 0.9776 0.00775172 -0.0306847 
8.5889 14.0398 0.0511822 0.408832 
6.7942 8.0398 0.374896 0.0863881 
1.0177 11.697 0.0544785 0.0483279 
3.8963 1.6074 0.218397 -0.327409 
3.4747 2.5569 -0.0269026 -0.00387118 
0.7132 4.2205 0.156517 -0.0708057 
7.201 6.8731 -0.263877 0.0818507 
11.8922 11.2861 -0.282099 0.12536 
9.4709 14.0538 -0.210977 0.0654449 
3.0126 11.4489 0.0829164 0.307572 
2.0109 2.0005 -0.0430938 0.102811 
13.9146 6.7527 -0.107199 0.299737 
5.3841 10.5394 -0.0773714 -0.0347161 
5.581 8.382 0.170906 -0.0493386 
2.8569 6.5809 -0.033499 0.109196 
11.088 13.0714 0.0261438 -0.183374 
4.4073 2.6533 0.210392 -0.18078 
6.3322 9.3054 -0.379666 -0.175586 
9.5191 8.0702 0.197292 -0.163757 
5.2136 9.8079 -0.0528567 0.0563108 
10.4064 7.4541 -0.173405 0.120983 
6.5169 4.2701 -0.0199457 0.169078 
4.0717 14.4497 0.131508 0.147137 
4.1605 14.6335 0.295533 -0.175493 
3.0695 1.9879 0.158946 -0.0622223 
4.1839 13.2734 -0.00282997 0.0984989 
13.5413 9.4669 0.0941436 0.117285 
2.6401 10.9206 0.00497382 -0.283397 
13.2029 11.6613 -0.137508 0.184941 
5.1333 8.0251 -0.152946 0.00718106 
10.3694 2.0118 -0.223676 -0.198301 
8.9068 4.1669 0.000495013 0.00230851 
11.4966 8.8935 -0.037725 0.0104143 
11.7971 5.3837 -0.0263733 0.260599 
5.3371 9.3731 0.142308 -0.0108292 
6.9149 11.6958 0.159855 -0.0270364 
1.3265 8.7542 -0.062668 -0.0377303 
7.9483 1.6909 -0.0434184 -0.00580759 
13.479 8.9925 0.0586922 -0.105218 
5.4288 12.7052 -0.235023 -0.237303 
5.6061 2.0463 -0.16613 -0.0677701 
11.5053 11.253 0.021971 0.0114536 
4.7172 7.9962 -0.19743 -0.0174347 
9.9574 8.5862 0.277481 0.0111486 
7.929 4.2859 0.139159 -0.206157 
13.458 13.3492 -0.335434 -0.19561 
2.6616 2.3396 0.331512 0.0222445 
3.9777 11.312 0.235674 -0.0150642 
7.3971 12.5866 -0.0984412 0.140925 
10.513 10.4254 0.00514684 0.25438 
9.8373 6.4858 0.0551153 -0.064927 
11.5026 2.7808 0.163356 -0.0244142 
8.747 5.9288 -0.0885035 0.181383 
4.4677 5.6395 0.128729 -0.118218 
13.9254 8.129 -0.0136796 -0.218048 
11.8084 12.3987 -0.186895 -0.220918 
11.0072 5.6673 0.111847 0.144935 
9.8094 9.9697 -0.288343 -0.00834718 
10.583 0.6413 0.0385403 0.0131397 
10.8272 3.9809 -0.201427 -0.221195 
0.5629 2.6631 0.0379353 -0.0117181 
10.4094 5.2913 -0.0925138 -0.199512 
2.5757 5.6363 0.124445 0.132417 
1.8322 7.3336 0.0458708 0.116352 
11.1958 10.3657 -0.00276026 0.181881 
11.9325 8.6612 0.161058 -0.0802888 
6.48 5.5692 0.0149802 0.12966 
13.447 10.1617 0.0447449 -0.0448603 
3.9628 4.4329 0.0128879 0.00698012 
8.5407 4.6996 0.27456 0.218691 
0.7806 13.666 0.0545298 -0.149437 
7.8443 5.9736 0.0447414 -0.419992 
10.9466 3.6427 0.05766 0.0153231 
1.6631 1.5471 -0.064677 -0.122601 
3.276 9.3103 -0.0552435 0.0702096 
12.8988 11.8006 -0.286219 0.14159 
0.9236 7.8765 -0.0450942 -0.117317 
1.7348 7.8318 0.0368229 -0.0481691 
7.2759 1.9118 0.0334046 -0.0745684 
0.9313 8.5951 -0.0377258 -0.150941 
11.3783 7.2742 -0.045787 0.0343995 
4.1508 7.393 -0.028303 0.129364 
6.5445 11.8568 0.0854633 0.261335 
5.3246 11.3584 -0.165893 -0.222677 
4.8057 3.3281 -0.029846 -0.0776398 
12.0667 9.496 0.159805 0.142276 
7.6921 11.1875 0.0733224 0.126899 
4.218 11.9341 -0.164349 -0.13974 
3.7201 1.9047 -0.0485075 0.0266419 
4.876 12.6605 0.130205 -0.0372797 
2.9604 0.5107 0.130361 -0.046341 
9.9132 2.6885 0.149484 -0.0155599 
13.1017 3.9686 0.0191196 0.149691 
3.5133 7.3176 0.0956379 0.0254339 
3.7646 4.5052 -0.06468 -0.163652 
5.9578 3.7589 -0.144154 0.208204 
2.9567 13.6457 0.0554066 0.12709 
9.3733 9.3469 0.0540074 -0.0393448 
5.1436 14.3656 0.00419325 0.00316254 
11.6112 7.6509 0.0294284 -0.0312233 
10.0111 8.1068 0.103687 -0.0956863 
2.3624 2.5199 -0.117703 0.0843759 
7.5771 14.3566 -0.0475191 -0.0824066 
7.3595 7.0813 -0.0486027 -0.0104879 
12.199 13.9637 -0.139997 -0.0260622 
12.4823 13.1657 -0.102693 -0.0250042 
3.3324 13.0307 0.0772263 0.322858 
10.6087 11.0827 0.037724 -0.00512482 
7.7756 4.7896 0.0944321 -0.112635 
5.8584 4.8295 0.167735 -0.00695655 
8.3722 9.9624 -0.133585 -0.291438 
10.5807 12.2742 -0.253739 -0.272269 
5.7051 11.2823 0.386887 -0.126386 
9.2752 12.8986 -0.105729 -0.152004 
13.4429 2.7631 0.033955 0.190358 
9.3347 10.3995 0.137708 0.00548416 
10.9218 3.0597 -0.00897255 0.110402 
11.0328 13.4944 0.0737668 0.148613 
11.4473 12.1905 0.0359013 0.13145 
5.3152 8.9084 0.0570537 0.0825028 
11.5764 10.9583 -0.0646917 -0.129074 
10.498 2.249 -0.0756057 0.126911 
13.3566 12.9515 0.0552025 0.0239802 
3.9821 8.4047 -0.167461 -0.0188763 
4.0742 12.9573 0.108907 0.0804538 
10.6103 13.402 -0.0518282 0.0221635 
0.9996 3.4537 0.0843908 0.113812 
6.9539 1.9733 -0.0199853 -0.0107424 
13.3146 4.9528 0.144385 -0.0424859 
8.0684 2.991 0.280175 0.110794 
10.5661 4.0191 -0.00795892 -0.0577687 
13.8813 2.7465 -0.0445977 0.148366 
5.5567 9.3404 0.102623 0.286863 
8.0265 5.3656 -0.0215303 0.0879186 
13.1761 1.7302 0.0331418 0.0542947 
7.9209 9.0982 -0.0424603 0.151818 
8.0521 2.5526 0.215091 -0.116086 
8.8823 2.6642 -0.0154984 -0.0968048 
3.8896 3.7418 -0.0962043 0.0324437 
0.6493 1.7622 -0.113071 -0.12248 
2.883 9.0919 -0.220796 0.15572 
10.7191 9.2614 0.043251 -0.206678 
5.1738 0.9872 -0.0127054 0.155915 
9.1681 11.4301 -0.138401 0.103257 
3.4224 4.5287 -0.00496654 0.138941 
7.6035 8.5063 -0.0387658 0.00200135 
8.9882 4.5429 0.0639336 0.0215749 
3.3416 7.8086 0.150074 -0.057372 
10.9486 1.7998 -0.175356 -0.0689393 
9.7372 3.4928 -0.19861 0.105873 
1.9869 10.779 0.220623 -0.0980905 
11.5094 5.5373 -0.00444652 0.0973757 
6.2198 12.4255 -0.116612 0.329786 
11.4061 5.7849 0.0650896 -0.164395 
1.6769 12.057 -0.157243 -0.0935827 
7.4347 3.8256 -0.170135 -0.0676745 
10.8968 12.4713 -0.121909 0.0433909 
0.6702 6.3295 -0.0126246 -0.108346 
6.8903 0.5135 -0.261679 -0.0648446 
10.9378 10.7076 -0.0376484 -0.15561 
8.2153 10.2488 0.155851 -0.0596835 
6.6635 6.7894 -0.107542 -0.292768 
2.9963 14.7723 -0.0812345 -0.0277524 
7.491 11.0346 0.389062 -0.00781282 
9.7186 8.4437 0.134826 0.0170592 
2.5181 0.8458 0.0301825 0.00481017 
11.2851 10.7358 -0.104211 0.0476096 
7.4566 6.154 -0.125934 -0.0649698 
13.0693 10.2471 -0.078979 0.170991 
12.2003 0.8405 -0.0982226 0.175032 
7.58 6.7589 0.0677041 -0.032724 
8.2576 4.9134 0.061115 0.0489551 
6.0993 10.8584 -0.10217 0.188867 
5.8556 14.6777 -0.139404 -0.235607 
10.0944 11.169 -0.0827298 0.260429 
2.4262 12.8643 -0.00939834 -0.0381301 
10.0644 10.5563 -0.0409017 0.0275311 
2.5444 0.5548 -0.0392991 -0.0201124 
2.3996 7.7514 -0.0599362 0.0577677 
9.042 13.9899 -0.110839 0.182354 
13.6707 8.646 0.0199229 -0.188363 
13.6059 4.3734 -0.00625938 0.045762 
10.2798 3.0909 0.0976505 -0.0139494 
4.5608 3.0737 0.0121687 0.122321 
1.8285 2.8261 0.0215365 0.104756 
3.6732 4.0158 -0.070394 0.0366226 
1.7362 13.9583 0.00436829 0.0557522 
18.2243 5.7544 -0.0983639 -0.0353133 
20.2349 10.8255 0.0324652 -0.0709866 
25.4065 8.5572 -0.0546198 0.155501 
17.7763 2.8404 0.0802702 0.000316293 
16.9098 8.1252 -0.416862 -0.112733 
26.8873 4.8934 0.0220467 0.0869591 
25.2053 5.6667 0.178819 -0.020803 
22.652 9.2715 0.0165139 -0.0424432 
22.2599 4.2617 0.022801 0.181315 
15.5937 8.7148 0.113724 -0.011713 
24.3416 4.7557 -0.202375 0.330163 
24.5797 2.0815 0.0840686 -0.131922 
14.6118 6.7777 -0.101949 -0.254382 
26.8473 5.4598 -0.0637521 0.0302283 
21.7549 1.4257 -0.10068 0.147143 
27.0694 1.0647 0.0801136 -0.129057 
25.2741 7.4091 -0.0883106 -0.0952332 
25.2534 14.5076 -0.205455 -0.188059 
16.4188 3.034 -0.117228 -0.149558 
17.0339 14.4138 -0.198474 0.0910223 
20.5878 14.3198 -0.0625524 0.198413 
26.6526 11.959 -0.0925103 -0.250065 
20.5523 5.7708 0.124409 0.0208017 
25.0179 7.2833 -0.0852451 -0.250143 
26.1995 5.3109 0.00676777 -0.0367726 
21.5396 12.1185 0.0510649 0.121611 
21.2649 5.2777 0.0796814 -0.0666936 
21.3586 3.8348 -0.0624792 0.230653 
24.3909 14.1343 -0.037948 0.0128959 
22.1609 12.9807 0.0494723 0.02473 
21.5054 9.216 -0.07323 0.231199 
26.9227 10.4947 -0.190029 0.24734 
14.0253 11.6167 -0.0536247 -0.239731 
22.7224 9.0642 -0.0770574 0.030643 
16.4263 9.4683 -0.03518 -0.00781009 
24.1149 11.7516 0.125972 -0.0925038 
21.733 11.3364 -0.160299 -0.183864 
23.8624 11.3741 0.00549657 0.0644039 
14.3523 13.9905 -0.0189117 -0.235877 
22.7414 5.3089 -0.349324 -0.175624 
26.0394 13.8254 -0.0188303 -0.027305 
14.3814 8.0068 -0.0970102 -0.19967 
27.7712 9.1036 -0.090337 0.00656692 
20.9804 11.2193 0.248537 -0.138101 
20.6502 7.1217 -0.0502491 -0.0113457 
20.2997 2.9125 -0.16538 0.0301145 
27.5396 14.1703 -0.00234619 -0.0642718 
25.2722 11.0177 -0.00230309 -0.014201 
17.2102 0.6551 0.0904895 0.183932 
17.5224 1.661 0.0607049 0.10169 
14.614 9.0375 -0.0262708 -0.060451 
14.7086 13.8158 -0.0370066 0.404663 
22.5065 14.7355 0.209576 -0.105463 
21.9728 0.5442 0.203654 -0.211166 
15.3193 0.7562 0.266956 0.114409 
16.0288 1.849 -0.0453649 0.202327 
24.3843 10.1764 -0.0334161 0.0191055 
26.7632 12.4978 -0.167529 -0.0864023 
17.628 10.1683 -0.00322352 -0.0101747 
14.5257 10.8937 0.0793373 -0.14126 
14.0441 13.6967 -0.0956399 -0.112597 
14.104 9.3309 0.172721 0.00505544 
23.4372 10.8634 0.174833 0.00279306 
15.1222 6.4817 0.077898 0.444591 
21.2677 2.8034 -0.223656 -0.0527285 
19.4426 9.1797 -0.0888063 0.0610393 
14.9214 14.1211 0.0219098 0.0281704 
23.231 5.0216 -0.00123001 0.141849 
26.6639 2.2201 -0.138477 0.0776703 
21.5763 10.4717 -0.0805621 -0.0190105 
22.6627 13.7039 0.165134 0.126064 
14.8843 1.8984 0.139806 -0.162703 
16.5978 14.4479 0.0198874 0.242115 
20.0926 9.2075 0.23967 0.0643114 
26.5688 14.2564 0.204408 0.0439029 
24.3787 7.2756 0.0195784 0.0906737 
20.3912 14.2144 0.180699 -0.12522 
22.1156 8.4761 0.0580559 -0.0512124 
20.8887 6.7776 0.0338215 -0.160953 
22.9076 2.1683 0.0112883 0.189852 
22.5811 7.0222 -0.0610062 -0.117259 
26.1015 4.7105 0.180181 -0.11041 
26.6486 13.9047 0.132099 -0.209061 
21.0746 5.6732 -0.0428748 -0.195507 
19.1606 10.4029 -0.0821302 -0.0165667 
27.1769 4.9033 0.187667 -0.150403 
25.8049 5.5522 -0.0934133 -0.0268894 
24.2136 8.3713 -0.0905505 0.0759932 
24.5661 4.038 -0.0179108 0.0711529 
20.8247 3.4637 -0.161167 -0.0333483 
23.8534 3.522 -0.0397433 -0.0596622 
22.4188 10.5475 -0.0920151 -0.161016 
19.4544 3.2368 -0.209598 -0.00595863 
25.1185 8.6764 0.0378572 -0.082566 
25.9857 3.1374 0.021819 0.154536 
25.4036 6.9524 -0.220836 -0.0114834 
24.1299 3.6145 0.0166524 -0.104452 
15.873 9.8238 -0.199152 -0.0903954 
20.4085 12.0316 -0.0438706 0.167548 
18.7756 7.4455 0.0608595 -0.20007 
14.545 3.6545 0.0539181 0.103063 
23.4199 3.4463 0.36604 0.166172 
16.5455 10.7886 -0.00779215 0.0576769 
20.5382 2.9946 0.213012 -0.168066 
18.5054 12.0708 -0.0461547 -0.0936541 
25.302 7.1711 -0.127192 0.0414728 
14.2381 7.2386 0.0792036 0.0600902 
17.7884 10.4788 -0.28883 0.0753053 
27.3096 1.0316 -0.102381 0.0789172 
26.3452 1.5241 0.23318 -0.000208212 
16.809 10.6336 0.220443 -0.398532 
21.7783 11.6798 0.136645 -0.0696774 
20.6203 1.1732 0.0381111 0.229838 
23.2583 6.3169 -0.0851641 0.189867 
21.282 2.288 -0.104004 -0.188305 
14.0635 7.0164 0.120257 0.0942312 
21.4771 12.833 0.237595 -0.0915057 
14.6242 14.6278 -0.143786 0.106981 
16.7557 6.7106 0.128326 -0.118025 
25.8669 4.1399 -0.111616 0.156516 
18.7335 4.1866 0.0326571 -0.14087 
17.0307 5.938 0.153985 -0.00712678 
20.0756 4.0534 -0.050907 0.278381 
27.6598 2.3464 0.137607 0.0646079 
14.0816 9.9977 0.250543 0.198263 
21.9371 14.7307 -0.010559 0.0191928 
19.6487 3.1417 -0.00013967 -0.116686 
22.2958 2.5198 0.176155 -0.173987 
27.6134 7.2196 0.0312367 0.166527 
17.6307 3.2166 0.0801145 0.0487022 
22.7366 0.9848 -0.0725706 0.194778 
16.7278 10.1368 -0.159739 0.186154 
26.8889 12.2589 0.0474046 -0.186202 
16.047 7.2858 0.142464 0.0378471 
26.6956 3.8675 0.15627 0.214899 
23.2578 12.9232 0.0962981 0.163036 
22.9681 4.9799 -0.00938521 -0.259685 
16.8703 13.1993 0.235162 -0.113167 
22.9183 8.8229 -0.110847 -0.271728 
18.521 14.2372 -0.132137 -0.065867 
20.578 10.8631 0.0972787 0.0695206 
27.1775 10.0611 -0.033753 0.140152 
24.905 8.6874 0.255886 0.0838307 
21.2763 8.9624 0.0239048 -0.109259 
20.4232 9.327 0.0256773 0.167945 
23.7722 6.591 0.0841561 0.219105 
26.3486 10.4743 -0.219627 -0.00205402 
23.1576 12.2053 0.0532407 0.290631 
14.7629 12.4445 -0.0234245 -0.0243975 
15.5576 0.5735 0.0781344 0.098389 
26.9546 8.5513 0.0801909 -0.266787 
23.3017 10.0715 0.00671222 0.127564 
16.0336 1.344 0.00769181 -0.366997 
22.0777 2.033 0.0757826 -0.11552 
15.2565 8.3604 -0.0915157 -0.0446428 
21.3155 7.9385 0.0449683 -0.119161 
24.5678 5.7515 0.0399829 0.0330595 
26.2985 13.1313 -0.167142 0.112146 
26.2927 12.2704 -0.00610862 0.0557341 
22.5513 12.59 -0.0484252 -0.114189 
25.7609 7.4387 -0.0383331 0.0756412 
19.1649 1.566 -0.105154 0.0621945 
17.0746 11.9151 0.137548 0.076624 
15.5493 2.9798 0.180068 -0.0643414 
22.0301 2.3297 -0.026273 -0.0286932 
17.6113 4.9774 0.122847 0.304302 
24.7877 9.6197 -0.0338588 -0.230701 
23.0553 11.079 -0.150521 0.025244 
17.9909 2.105 -0.137899 0.137641 
19.9981 8.4878 0.0128175 0.124132 
25.7411 3.8884 -0.235257 0.219468 
22.291 4.7117 0.0120383 0.0430524 
17.261 3.4025 -0.085119 -0.164345 
15.6137 7.1662 -0.0114495 -0.264287 
26.8491 8.1765 -0.114745 0.00488418 
22.9723 12.7166 -0.151304 -0.0184836 
22.377 5.1163 -0.155325 0.122545 
17.7866 13.0112 -0.127887 -0.0445348 
21.5671 6.0007 0.00670787 -0.207726 
20.656 8.6172 0.0507978 -0.0185296 
25.0803 3.2514 0.106157 -0.0936646 
23.5559 9.2874 0.0188314 0.224568 
19.3559 4.0904 -0.206956 0.166563 
14.9049 12.7307 -0.0095713 0.0812284 
24.6099 6.8214 -0.155726 0.07346 
20.3542 1.1075 0.0476426 -0.147514 
22.9833 1.6764 0.0463196 0.0632669 
15.2676 1.8088 0.056096 -0.0010807 
23.6462 3.9369 0.106567 0.104128 
27.4892 1.3429 0.188518 0.0773913 
16.505 11.3498 0.108377 -0.0322281 
15.7847 8.3974 -0.0224062 -0.0674912 
21.6392 9.4785 -0.171396 0.214001 
24.2537 3.1321 0.140287 -0.130397 
17.4566 14.4353 0.0316314 0.391868 
14.3751 4.2917 -0.145636 0.176413 
15.7227 6.5779 -0.00209587 0.153974 
16.0173 9.0464 -0.109185 -0.0453297 
27.5799 6.8104 0.0232708 2.07388e-05 
21.4142 3.5807 0.0248684 -0.031366 
26.1761 11.3814 0.00697168 0.0513478 
17.2569 13.7293 0.106955 0.196384 
19.5675 6.7311 0.0569111 0.19302 
16.449 4.8494 0.00972431 0.0920846 
18.239 9.7913 0.0143074 -0.0209577 
19.1218 8.9224 -0.19231 -0.0261359 
27.5384 12.2392 -0.0345665 0.124493 
19.7491 6.6437 -0.0780732 -0.122505 
16.2912 3.9149 0.0291123 0.239489 
19.2586 6.2525 -0.0882824 -0.157346 
27.0959 3.9871 0.00186218 0.103746 
26.4566 11.7753 0.371815 -0.362315 
20.6108 7.3236 -0.254966 -0.104028 
20.8538 12.2918 0.112284 -0.0314799 
23.3634 5.766 0.0395041 0.131078 
19.4468 4.654 -0.0592923 0.0782752 
25.4364 3.6816 -0.0548161 -0.0172149 
17.2154 13.9324 -0.0319982 0.134725 
26.3413 5.054 0.0168188 -0.137942 
16.5272 13.5063 -0.324598 0.0898215 
23.2718 2.6252 0.126417 -0.0655984 
16.7353 4.1844 0.0570672 0.0989233 
26.028 1.7729 0.0561934 0.0634675 
18.0417 14.747 -0.0778798 -0.176374 
17.7077 7.3554 0.119834 -0.288452 
16.1685 4.6146 -0.00770135 0.264388 
21.9381 6.0326 0.200623 0.00168304 
26.6163 9.5682 -0.00514492 0.119308 
22.2498 6.7001 0.0608676 -0.16369 
21.908 13.6404 -0.053014 -0.158941 
19.7585 4.9637 0.0554411 -0.118317 
24.1793 10.096 -0.217272 0.18789 
14.5218 7.1978 -0.176764 -0.236134 
16.1255 13.9494 -0.288863 0.172685 
25.8739 3.3863 0.00728417 0.101887 
26.1869 11.6446 0.0113785 0.0373458 
24.9061 1.9472 -0.294081 0.127906 
23.3193 9.4545 0.052127 0.1132 
14.1477 6.6312 -0.0259812 -0.0236298 
19.7766 9.775 0.0129436 0.0743341 
14.3564 11.9201 0.210578 0.0195061 
24.586 8.807 0.303617 0.12567 
16.0347 12.2708 -0.0688035 0.108715 
16.0265 4.8512 0.0797114 -0.0442097 
17.2524 12.5251 -0.00865492 -0.118005 
14.8967 10.6302 -0.115996 0.185275 
26.4387 9.9051 0.00362275 -0.0618991 
16.1217 3.1292 -0.0513449 -0.181297 
23.2741 8.4132 0.17667 0.153217 
26.7425 7.2348 -0.116568 -0.123601 
18.7243 11.9529 -0.143607 -0.0480009 
16.0509 4.3659 0.118991 0.0210353 
16.8532 10.3708 0.0162918 -0.0313948 
27.6482 0.7374 0.135807 0.0224428 
24.1657 9.8753 -0.0334995 -0.209122 
20.8205 11.0069 -0.0520848 -0.00201265 
26.7071 10.6326 0.0324215 -0.171959 
25.3614 5.8833 -0.127637 0.00956767 
25.6068 3.2146 0.0972975 0.116414 
26.2892 2.3417 -0.253467 0.237557 
23.6654 3.6409 0.0943714 0.195219 
21.8346 10.7118 0.0484671 0.111362 
16.1402 2.0732 -0.148189 -0.138267 
27.2257 8.3035 0.0484176 -0.140313 
19.7601 10.5431 -0.0924217 -0.101249 
16.3088 8.7929 0.319424 0.0889903 
14.2174 9.6138 0.0526787 0.0248871 
22.0713 9.1648 -0.199992 -0.155353 
18.7818 10.1502 0.0323195 -0.284621 
27.5752 9.4056 0.135055 -0.0042281 
26.7027 13.2277 -0.0586509 -0.257889 
25.4452 6.6652 -0.027294 0.0765881 
19.7919 9.2501 -0.0211218 -0.222763 
27.4843 8.7821 0.142774 0.00180524 
18.1477 10.1321 0.160576 -0.173069 
16.1293 6.0504 -0.326068 -0.0643237 
26.7153 1.9791 -0.0123969 0.0820175 
16.281 12.9434 0.0127364 0.0416029 
23.2065 7.769 -0.00709546 0.134901 
22.6741 4.2363 0.167366 -0.0321568 
24.8358 5.0033 0.197619 -0.15746 
16.3167 6.6417 0.0707087 0.111404 
24.5756 3.214 -0.0302338 -0.0544069 
25.755 14.731 -0.0767825 0.0594865 
18.664 13.6679 -0.0711535 -0.208568 
17.1523 4.0729 -0.095898 0.0609763 
23.7953 5.2163 0.0395762 0.033316 
16.4517 2.0719 -0.260689 0.166806 
27.1135 4.5382 -0.116847 -0.187047 
17.2713 9.7991 0.15706 -0.15898 
22.0471 7.6022 0.109172 -0.277931 
15.5325 2.3366 -0.140722 -0.244888 
16.991 12.2529 -0.391514 0.0693077 
22.3771 8.5218 0.0777506 -0.0878845 
18.9228 8.0655 0.00752614 -0.0125883 
20.1826 8.2013 0.137513 -0.0969086 
14.3575 9.3528 0.0362561 0.138623 
21.2393 13.3766 0.260691 -0.149696 
18.6601 6.9193 0.231112 0.0629049 
18.9041 11.5623 0.213142 0.216524 
20.4221 8.2673 -0.138148 -0.0375133 
20.3604 12.8472 -0.0874913 0.207511 
15.3156 5.1127 -0.126183 0.0579455 
23.5522 9.4982 -0.0622643 -0.186432 
23.8275 12.3119 -0.0688153 0.0752058 
17.8827 13.8326 0.206489 0.0056787 
21.1467 4.9545 0.0860227 -0.118482 
18.548 0.8528 -0.195719 -0.00735402 
24.5553 1.4433 -0.26464 -0.0509946 
19.2356 1.341 -0.0280227 0.0365567 
20.0711 4.7983 0.0548865 -0.0349203 
23.1966 9.7018 -0.0585759 -0.135446 
15.1351 14.6817 -0.101903 -0.0523773 
27.024 2.8964 -0.0917979 0.121967 
16.5448 12.8773 -0.0629613 0.032917 
16.1359 6.3269 0.0283627 -0.0568404 
16.6984 1.3134 0.0397123 0.0346114 
18.2622 13.9203 -0.125388 0.453234 
20.8164 3.1865 0.17897 -0.11632 
14.8545 3.9384 0.0689561 -0.164868 
19.5704 7.0018 -0.00941724 -0.192485 
18.8152 5.2779 -0.208405 -0.221352 
23.1111 9.9541 0.271911 0.35023 
18.8356 7.1948 -0.202169 0.0521467 
26.8982 13.8456 0.0548304 -0.0651215 
26.9181 10.2215 -0.122719 0.31102 
25.1168 13.3007 -0.0776724 -0.0662162 
17.872 1.4418 0.0806228 -0.0141226 
19.5108 14.1708 -0.151292 -0.216263 
27.5904 5.3812 -0.120197 -0.0619461 
15.747 10.6373 -0.02073 0.225713 
19.8442 3.6943 -0.144966 0.0523229 
17.7852 1.7708 -0.0780581 -0.0445636 
20.2119 7.8494 -0.0288034 -0.0900936 
22.4371 1.7434 0.0751398 0.0648508 
18.7706 3.3381 0.022657 0.153813 
22.1617 10.8718 0.343832 -0.180737 
17.5832 14.1314 -0.112858 -0.0542778 
23.0809 11.7263 0.175378 -0.0498837 
16.9242 7.245 -0.00867151 0.0916617 
24.7656 2.9514 -0.0527075 -0.0756655 
23.5869 4.4132 -0.0757544 -0.18555 
18.5769 9.3092 0.0222536 -0.0881547 
18.9911 2.5974 -0.248199 0.125642 
20.7314 2.113 -0.103755 -0.144249 
20.6159 12.6128 -0.0249538 0.0407423 
19.1296 12.2067 0.228989 0.0815843 
17.9195 5.7972 -0.177043 0.0662423 
15.5808 11.6462 -0.146818 -0.181175 
15.4264 12.232 -0.219448 0.0541515 
25.4877 2.761 0.0939954 -0.186845 
16.4971 2.8471 -0.0390675 -0.048405 
14.2448 3.7011 0.063995 0.155944 
22.2542 0.5224 -0.0878928 -0.033737 
18.4629 10.5327 0.0248861 0.197541 
18.9282 10.4803 -0.271389 0.128658 
15.0824 6.7257 0.0616654 -0.0482295 
23.0678 12.4045 0.0542163 -0.219933 
25.9092 8.5547 0.0794296 -0.121299 
21.4235 14.6944 0.0745839 -0.0808905 
27.4337 13.4508 0.0725836 -0.103781 
15.0548 10.2951 -0.131478 -0.142417 
24.6831 14.5627 -0.213552 0.0187464 
19.1116 3.258 0.146651 -0.176797 
15.298 11.9324 -0.137115 0.0926978 
23.9313 4.9425 0.173452 -0.00548098 
24.5372 13.2482 0.116363 0.043695 
24.9849 1.0389 -0.111412 -0.238467 
27.7456 8.3678 -0.0976084 0.173161 
23.202 14.3008 -0.0167053 -0.000235288 
23.3577 13.1322 -0.221249 -0.11942 
22.1131 2.9259 -0.102356 -0.315834 
21.8517 5.215 0.115242 -0.0861115 
21.0693 9.4045 0.019761 -0.00754593 
24.4619 12.4755 0.0585755 0.069569 
15.3944 7.0876 -0.0259845 -0.0219288 
19.1211 11.7757 0.104273 -0.14596 
26.9108 3.3318 -0.242769 0.101573 
22.2441 12.42 -0.312376 -0.15896 
17.989 7.7924 0.123624 0.135609 
23.8077 5.509 -0.199347 0.0024973 
14.7345 13.5434 0.0485707 -0.203346 
23.6724 3.0516 -0.140253 0.0969343 
25.5499 4.2131 -0.1385 -0.140361 
16.5066 1.371 -0.0142034 0.257888 
27.1943 14.4446 0.0406221 -0.0688214 
14.8184 9.3598 -0.188737 0.0100651 
24.4144 1.7618 0.0462495 0.107544 
20.9138 4.8582 0.0625792 0.0935295 
27.5532 4.7898 0.174428 -0.0228001 
24.2273 5.5804 0.177361 0.288837 
16.4275 11.0789 0.138175 -0.0189086 
17.0253 3.5338 -0.0194322 -0.0191211 
23.6923 0.8653 -0.12963 -0.0825749 
16.0921 10.657 -0.247836 -0.211094 
16.3306 0.5172 0.207432 0.136243 
26.7775 13.6053 0.206634 0.00403222 
14.8729 10.1881 -0.053106 0.171399 
19.8506 14.4867 0.0423247 -0.0716655 
16.8378 5.8401 0.228337 0.0629432 
24.609 12.7981 0.0463318 0.127286 
23.115 9.0961 -0.0866441 -0.0935859 
27.1849 4.3137 0.00121908 -0.115567 
15.0387 7.014 -0.00680498 0.110309 
15.6447 11.9566 0.147938 -0.0185752 
15.4603 1.5839 0.0656304 0.0374319 
14.7962 2.7886 0.190967 0.166293 
22.7922 6.0161 0.11805 0.170338 
18.1049 7.4831 0.0739914 -0.0981202 
21.2947 9.5131 0.00649201 0.0857353 
21.1398 13.9655 -0.26516 0.320545 
15.3889 9.0553 -0.118296 0.00658453 
26.5711 5.6042 -0.0326791 -0.0264368 
20.208 1.9504 0.0804738 -0.224363 
26.5459 8.6973 0.155988 0.0265654 
26.348 1.1318 -0.0232242 -0.0267453 
27.3444 6.6843 0.0416049 0.242567 