ITEM: TIMESTEP
0
ITEM: NUMBER OF ATOMS
1260
ITEM: BOX BOUNDS pp pp pp
0.0000000000000000e+00 2.8000000000000000e+01
0.0000000000000000e+00 1.5000000000000000e+01
-1.0000000000000000e+00 1.0000000000000000e+00
ITEM: ATOMS x y vx vy 
5.9483 0.9814 -0.130403 0.00135122 
8.291 10.2971 0.156896 -0.0541754 
11.061 0.6075 0.0524041 -0.0360625 
4.7693 5.7251 0.105872 -0.073442 
3.9585 10.5866 0.0776623 0.0035956 
8.0999 11.5196 0.261205 -0.0506216 
1.8434 7.3577 0.081012 0.019717 
0.5797 8.2672 0.0810839 0.0121867 
3.6592 6.6434 0.0808781 -0.085462 
8.5149 13.9593 0.00294531 0.075824 
8.7512 9.8882 0.0432168 -0.131414 
10.3965 3.4831 -0.318542 -0.039078 
10.7977 8.0796 0.0696299 0.0359718 
5.4011 12.9737 -0.0880372 0.032833 
4.5705 10.2746 0.102556 -0.194058 
4.0667 11.1678 0.0121592 0.150344 
0.6743 9.6908 -0.0856184 0.269224 
3.8105 11.3518 -0.227109 0.0705282 
13.4992 12.5475 0.219229 0.0552475 
10.5634 8.1877 0.0357776 -0.0647601 
5.8707 10.9237 -0.225849 -0.0593179 
12.2278 6.7506 0.18997 -0.0429096 
12.3838 8.5868 -0.036774 -0.268215 
2.6363 3.8038 0.0235566 0.121657 
2.8101 14.258 0.193021 -0.133031 
6.7018 4.4185 -0.168359 -0.0578291 
8.7775 3.6437 -0.153958 0.205023 
10.5505 11.7838 0.2536 0.0385589 
13.7136 2.828 -0.202716 -0.245294 
5.3844 8.4961 -0.13192 -0.0720207 
13.441 0.5031 0.332652 -0.0017866 
4.2776 2.7642 -0.130899 -0.109073 
5.0306 9.768 -0.159667 -0.180744 
3.3766 9.8672 0.236462 -0.172937 
2.3679 13.4814 0.021385 0.196081 
12.7426 8.1788 -0.221349 -0.142003 
1.7401 14.5354 -0.102382 -0.0265739 
11.4154 5.6254 0.10127 -0.0750031 
11.8258 9.2188 0.315659 -0.167472 
3.1295 13.2153 0.0861263 0.0415124 
4.9679 3.5118 -0.0421306 0.162862 
8.6153 7.876 -0.0119362 0.0580256 
2.7128 11.4994 0.271792 -0.080269 
10.4181 6.7921 -0.0986588 -0.00756985 
3.8524 10.8764 -0.114393 0.121188 
3.1592 0.9924 0.0994378 -0.0400843 
5.9908 1.909 -0.0111489 -0.165626 
0.695 11.8237 -0.0166999 -0.254582 
7.7998 5.5637 -0.132804 0.0690664 
5.7659 7.8454 0.032878 -0.0510589 
7.2281 10.9815 0.0210712 -0.00904207 
8.3006 2.1255 -0.118546 0.100968 
2.9328 2.4058 -0.0590463 -0.0341324 
4.9245 2.4259 0.0188146 0.113101 
7.7084 6.1888 -0.123344 0.137967 
1.4977 7.0786 0.00534084 -0.144093 
5.1028 4.3962 -0.0270545 -0.0210757 
7.9152 6.8542 -0.225212 0.00360289 
1.8297 11.0591 0.144803 0.00333576 
12.3041 1.6673 -0.0147818 -0.21217 
6.0637 8.9977 -0.0492868 0.155662 
2.5694 7.5567 -0.158025 -0.0923134 
13.3804 8.2049 0.0364457 0.0551311 
13.1819 9.5139 0.0102755 0.0626627 
3.1535 5.0697 -0.199567 0.107177 
3.3968 13.2619 -0.206806 0.187269 
1.5477 3.2985 -0.119274 -0.111256 
5.3856 9.1811 -0.18244 0.216863 
1.2218 4.2933 0.0548603 -0.084105 
7.3963 11.1779 -2.27574e-05 0.066256 
2.721 1.3273 -0.0291653 0.127773 
8.9236 6.0579 -0.0484937 0.188108 
13.0305 8.437 0.0130251 0.148179 
6.5486 13.4712 -0.476703 0.125475 
1.3811 2.8852 -0.253788 -0.0477987 
4.1109 9.103 -0.178433 0.090532 
3.1141 12.2773 -0.198067 0.101302 
1.1157 8.0816 -0.00964052 0.223352 
2.901 7.4417 -0.107505 -0.225565 
12.4092 1.4832 0.0206377 -0.0940853 
6.769 7.4581 -0.11757 0.0247624 
13.7752 5.3218 -0.0994629 0.0431845 
3.6952 5.1487 -0.0105376 0.102634 
3.3386 1.841 -0.0563903 -0.00947408 
5.669 10.936 -0.00954439 -0.282122 
3.5928 4.3881 -0.165527 -0.131546 
2.428 3.1746 0.0150018 0.0983614 
11.8533 4.6985 -0.054465 0.00972835 
9.5947 12.2263 -0.111955 0.00424797 
9.0887 11.3874 -0.0515917 -0.0507545 
11.8859 5.4843 0.10195 0.101178 
2.55 4.8597 0.131423 -0.159534 
3.233 11.5039 -0.170108 -0.222508 
2.3417 5.5449 0.169637 0.133809 
6.5185 5.2477 0.160682 0.0608588 
6.7036 7.1693 -0.0274925 -0.203182 
3.1936 7.9184 -0.0221305 0.16313 
10.6246 6.9956 0.0562409 0.0542483 
4.1707 7.9911 -0.124018 0.0839528 
11.6197 8.8444 0.103796 -0.0866739 
8.5245 12.4507 -0.0959932 -0.00284919 
1.2969 0.53 -0.0819181 0.0433383 
4.234 8.7091 0.0288634 0.0291067 
13.8227 4.5176 0.0506802 -0.0579497 
3.0454 7.6239 -0.149148 -0.159104 
6.2115 12.7453 0.342238 -0.0224067 
8.9446 10.6539 -0.399922 -0.24934 
5.8269 8.4569 -0.175923 0.121812 
6.6509 12.134 0.0195105 -0.26563 
7.2598 2.8506 0.0392149 0.20324 
1.6192 4.1898 0.165707 0.0456379 
8.1887 5.3076 0.0817383 -0.0288306 
10.9209 8.6582 0.1748 0.0453753 
13.1123 12.2945 0.00723625 -0.0337907 
9.799 4.0956 -0.0796534 0.255534 
1.301 1.2793 0.139159 0.0423595 
2.0897 1.5901 -0.0497122 -0.171044 
5.0258 12.7082 -0.241185 -0.250328 
1.1404 4.5213 -0.0898288 -0.0555149 
5.8614 12.2 -0.0969468 -0.414114 
4.378 12.9934 -0.0825424 -0.0153837 
6.2387 10.4143 0.0508914 -0.0538138 
1.8103 5.8383 -0.0193009 0.0934357 
13.3738 6.6798 -0.155521 0.00409995 
8.5245 5.2574 0.108844 -0.0298504 
10.1013 5.7353 -0.0115857 -0.0508244 
12.8219 5.5121 0.0569036 -0.161997 
5.3556 2.5184 0.264322 0.0387625 
6.529 12.5515 -0.0337349 -0.0534318 
11.8522 7.3365 0.217366 0.1202 
6.0841 10.0802 -0.00367929 0.147691 
0.9847 4.8907 -0.0293105 0.0719697 
8.6772 1.9879 0.0438312 0.0385363 
5.1361 5.6367 -0.107173 0.081873 
10.9782 4.27 0.131318 -0.147836 
11.8854 12.2815 -0.0442595 -0.151714 
13.3181 6.04 0.0242256 -0.0846902 
4.7043 4.0437 -0.029083 0.0712868 
0.9385 8.7686 -0.0358771 0.263201 
7.9099 12.0546 0.028852 0.0555681 
2.2976 13.9051 -0.18763 0.101606 
10.7124 11.1469 0.0190739 -0.127477 
1.3737 2.5994 -0.00390547 -0.0876501 
7.1959 5.5172 -0.0844869 -0.036845 
9.1053 13.3012 -0.125703 -0.15525 
11.3205 4.3618 0.136927 0.0220585 
10.3994 7.2522 -0.10034 -0.16373 
0.7164 3.1673 0.218874 0.114632 
3.6961 3.4509 0.0548441 -0.273479 
6.8649 14.7808 0.0656851 0.0890938 
9.8175 10.9857 0.0644396 -0.275664 
1.3216 11.7223 0.014834 -0.0545259 
4.4707 11.4578 -0.0326598 -0.127238 
9.1795 7.6227 0.0889914 -0.0763131 
3.7238 7.5257 0.0542084 -0.209691 
6.6544 1.3112 -0.0507142 0.232057 
9.9442 12.1981 0.0800189 -0.0756133 
12.7879 3.1215 0.0766154 -0.0272941 
6.9349 6.6951 0.0614115 -0.0734465 
1.9995 5.2927 0.15695 0.098075 
9.2932 6.1797 0.0115247 -0.0987232 
12.3386 13.9209 -0.139654 0.158569 
8.2027 1.4687 0.0172151 0.0608941 
12.5627 1.9016 0.0713018 -0.0431549 
4.6323 4.405 -0.13694 -0.240405 
0.9767 4.2517 -0.0390461 -0.0216486 
7.7473 4.1139 -0.0401738 0.237502 
4.6051 14.4202 -0.158509 -0.291083 
4.3843 6.6483 0.0527364 -0.0572935 
3.6029 13.3922 0.0236702 -0.146432 
9.0375 9.0432 0.148592 -0.0101678 
12.6568 11.6374 -0.0835655 -0.0208944 
5.7985 3.2816 0.0828333 -0.0221358 
13.9015 7.5558 0.023388 0.117072 
9.5956 13.8148 -0.0304414 -0.0560848 
4.8028 0.9898 0.0411936 -0.0929859 
7.4648 2.3237 0.197847 0.0469671 
11.4255 6.0919 0.0554726 -0.0927715 
10.6911 3.6691 -0.20444 -0.0454461 
1.8442 9.8858 0.163898 0.17146 
4.4197 10.8536 -0.113164 0.120624 
11.6207 2.9292 -0.0432697 0.195712 
9.3625 1.9787 -0.249031 -0.105728 
3.0806 6.1717 -0.170086 -0.0363739 
1.6177 12.0581 -0.103932 0.105688 
7.9145 10.9545 0.00434832 -0.0506691 
3.2253 4.5217 0.155408 -0.0324282 
8.7389 3.8935 0.0351688 0.0772056 
11.9564 2.6608 -0.115495 0.221521 
6.8261 2.0541 -0.0638184 -0.0984794 
3.1508 13.8751 -0.00369295 0.00491218 
3.0894 10.3285 -0.00934719 0.0572557 
13.6486 5.5922 0.0272473 -0.083575 
8.2833 14.535 0.17596 0.177157 
6.3218 6.0651 0.177042 -0.209058 
5.9363 4.8594 0.0026486 0.0241398 
1.3408 11.9439 0.0188401 0.132318 
8.708 8.709 -0.0815271 -0.0477748 
9.849 6.4636 0.0570641 -0.000172597 
2.5145 13.2123 -0.282643 0.116081 
4.0232 4.1298 0.0025055 -0.121265 
6.2041 5.2879 0.0112595 0.0759177 
11.0949 10.4278 -0.030872 0.0732106 
3.9563 1.166 0.0587455 0.137506 
4.6991 7.9527 0.278874 0.133122 
1.4569 6.2671 -0.232242 0.0674764 
11.3592 6.9233 0.0430148 -0.0286155 
12.9232 4.9568 0.0544764 -0.0153884 
12.9799 7.1077 0.060951 -0.1087 
10.1079 8.4354 0.117055 0.144667 
9.9436 1.8229 -0.160692 -0.0997863 
5.9085 9.7347 0.0608052 -0.13074 
11.5642 3.412 0.232626 -0.0851001 
7.0119 8.2432 0.127874 -0.00607571 
3.1772 12.939 0.046343 -0.126628 
2.2546 7.9827 0.0418556 -0.195355 
9.66 8.4488 -0.0793308 -0.330723 
1.3863 0.805 0.0837428 -0.12023 
0.527 5.3342 -0.14864 -0.0293863 
1.401 9.9254 0.0801516 -0.0268943 
6.8264 5.2231 -0.0141641 -0.0900095 
10.244 5.2029 -0.0518537 -0.0188757 
5.0477 8.7365 -0.0412846 0.0847312 
13.6229 9.6261 0.0387964 0.0684409 
9.6659 5.8745 0.261305 -0.00871557 
11.1853 9.9259 -0.0795441 -0.0967735 
13.1855 13.0873 0.205469 0.0427307 
9.7259 13.0603 0.0189444 -0.0600476 
5.8486 6.1009 0.181031 -0.0242444 
10.1794 10.1561 0.0438744 0.159128 
12.2382 5.439 -0.20588 -0.186315 
9.1387 5.9213 0.235128 -0.0156004 
6.9449 0.8998 0.0440482 -0.0108611 
3.1667 6.8933 0.155785 -0.0578803 
8.9771 6.7056 -0.0796141 -0.108173 
8.3699 2.3818 -0.188425 -0.267885 
12.017 4.366 -0.102274 0.11486 
1.0156 7.1131 -0.058715 0.209164 
7.9312 5.1548 0.139887 -0.0669404 
3.7537 14.3163 -0.0747075 0.0889714 
1.9321 6.3688 -0.0797417 0.0796489 
8.5899 10.0323 0.054002 -0.027339 
2.3212 12.7477 -0.00482147 0.0762305 
1.6282 9.4877 -0.183939 -0.186401 
8.0941 5.6939 -0.13452 -0.0349111 
13.5452 8.6475 0.0882937 -0.219632 
1.1337 12.5504 -0.0814656 -0.221099 
2.0114 4.5049 -0.165013 0.0816313 
10.8903 9.2775 -0.0127432 -0.166186 
10.3388 2.7391 -0.174107 -0.0220933 
2.2472 10.5688 -0.174546 0.110446 
0.5522 5.1157 0.110785 -0.131388 
13.0947 5.4978 -0.209386 0.128971 
7.3064 9.5849 0.046772 -0.121056 
5.5826 4.2491 0.23138 -0.079618 
7.5501 6.0198 -0.326246 0.0653446 
9.1342 7.3589 -0.0257778 0.025886 
6.6677 4.0314 -0.0662367 0.0610619 
11.3689 0.8317 0.196224 0.0342415 
11.0847 13.0343 0.0444824 -0.108168 
0.9312 7.6084 -0.112466 -0.0824188 
11.8659 9.9587 0.128624 -0.00244098 
3.5821 1.111 -0.110688 -0.23642 
3.8003 1.0242 -0.174074 -0.0259731 
11.4589 10.6234 0.0681328 -0.0274385 
6.8968 11.661 0.0414264 0.108673 
3.905 2.3897 -0.0262179 0.0307625 
4.7853 11.442 0.134694 0.122779 
4.574 9.6111 -0.20795 0.350741 
10.2566 7.5723 0.00705574 -0.0300103 
9.4184 14.6273 -0.104209 -0.0950701 
5.4791 10.8351 0.204483 -0.0982851 
6.293 1.9062 -0.089436 -0.128115 
5.0778 4.0029 -0.0229492 -0.0102997 
6.9996 7.6255 0.116614 0.193581 
12.4706 12.8494 -0.0520079 -0.0563334 
7.0121 13.9538 -0.166405 -0.0539729 
4.4249 14.0153 0.0757454 -0.0969065 
10.9539 1.1038 -0.139825 0.0484599 
1.7919 14.2989 -0.0478775 0.129053 
1.2653 1.9376 0.0535796 -0.0872172 
7.2113 6.3475 -0.161517 0.100038 
12.1949 12.844 -0.094643 0.0264676 
3.6997 12.4999 0.164369 0.1031 
13.4279 12.9846 0.0159428 -0.0564111 
12.3587 3.8479 -0.043393 0.0292023 
11.19 8.4158 -0.339152 0.227038 
10.7309 0.9692 -0.00575882 -0.0817285 
12.345 12.0218 -0.0490414 0.0316538 
3.2254 13.4121 0.0394706 0.171959 
4.8568 12.4076 -0.0380814 0.185927 
1.6212 12.4654 -0.0853953 -0.206991 
1.5788 10.7961 -0.240699 -0.112661 
13.8127 6.3884 0.0386229 0.265887 
8.5881 8.9123 -0.0891168 0.127189 
7.8444 10.4698 -0.171169 -0.208104 
10.7534 6.6344 -0.125391 0.143616 
2.7377 11.8701 0.0914918 0.103596 
7.903 7.4855 -0.0761593 0.0222237 
10.3933 1.7666 0.178888 0.0156826 
11.4722 14.2896 -0.131519 -0.187905 
4.0951 13.9782 -0.169876 0.233444 
12.8981 3.5951 0.104649 -0.262338 
7.5603 13.694 0.258823 -0.244688 
4.132 4.4311 0.177421 -0.0976967 
13.6027 11.033 -0.0651193 -0.183376 
5.6191 2.0538 0.0781428 -0.211805 
10.1759 6.3433 -0.183573 -0.0199181 
7.09 5.7687 -0.132469 -0.0451705 
4.1555 14.3469 -0.0136883 0.284612 
2.2986 1.3687 0.0238697 -0.0547448 
10.2987 5.9045 0.0320163 0.0754758 
8.4684 2.5584 0.0343716 -0.112098 
3.5548 2.7796 -0.170066 -0.0510254 
11.2452 3.1749 0.0685441 -0.155422 
7.7486 11.5706 0.0724845 0.321001 
4.2785 1.2526 -0.0889165 -0.149897 
13.5274 8.0394 0.109604 -0.336612 
5.9241 5.3451 0.134305 -0.0880789 
5.4972 2.9428 -0.0383099 -0.168567 
6.6441 0.9488 -0.0350704 -0.0316141 
10.4721 6.1995 -0.114983 -0.0662281 
6.0233 6.8565 -0.0225517 0.105659 
4.4831 10.0274 0.202496 -0.0418571 
7.7096 13.8862 -0.0431834 -0.151708 
5.5782 8.1624 0.0118833 0.128378 
11.0005 6.2859 0.164714 0.0989926 
13.8382 1.1915 0.00377455 0.0909476 
5.2286 14.046 0.258367 0.0790499 
4.2662 13.1657 -0.0467156 0.170737 
8.0074 12.702 -0.100134 0.0531541 
12.8627 12.6634 -0.0763991 -0.261501 
6.0392 1.2013 0.38469 -0.0406857 
1.5926 5.6166 -0.0520105 0.0348534 
11.9054 10.8223 0.139853 0.155616 
4.32 11.2475 -0.0251741 0.00180821 
8.6126 9.3973 0.123289 -0.0906401 
7.1015 3.9695 -0.198508 -0.128132 
3.0599 9.4928 0.0302418 -0.0819262 
7.7168 13.2353 0.164571 -0.0194825 
12.8272 2.1493 -0.0305489 -0.0293057 
6.9799 4.5353 -0.368275 -0.128453 
2.9805 12.836 0.184875 0.0850467 
10.5689 5.6865 0.0134003 -0.0625939 
8.5703 11.9747 0.130259 0.0803049 
5.3649 6.8855 -0.0375945 -0.0831815 
7.1052 13.3861 0.0676097 0.0941134 
3.473 9.4032 -0.0127977 0.0668634 
7.7702 14.6805 0.162391 -0.1064 
6.9963 4.7663 0.13063 -0.27286 
12.9507 12.8838 0.0229558 0.162771 
8.7009 4.9061 -0.239106 -0.0644534 
3.2074 11.0174 0.117015 -0.300023 
11.45 3.6176 -0.119165 -0.184414 
1.6498 8.7021 0.0837775 0.223725 
9.2842 3.6422 0.0860667 0.306108 
3.8438 11.9238 -0.188052 0.0349522 
5.0846 6.0972 -0.282449 -0.0472547 
8.6735 2.8003 -0.0218248 -0.0148237 
2.7393 8.6476 0.0369817 0.136831 
2.9014 6.5891 0.00950776 -0.157433 
3.519 14.7273 0.0428271 0.0504902 
12.9956 7.3164 -0.115899 -0.0196523 
5.6026 2.3243 0.0567204 -0.0784655 
10.2208 8.8091 0.16395 -0.0564913 
12.667 6.3427 -0.0346217 0.125606 
12.4744 4.0237 0.0104452 -0.368924 
6.3281 3.5427 0.0242727 -0.380451 
1.2403 10.6114 -0.101105 0.223465 
8.8792 6.3643 0.150867 -0.148534 
8.77 5.1543 0.02991 0.127446 
8.627 5.9748 0.109632 0.225798 
4.434 7.6209 0.0251178 0.264155 
2.991 3.7448 0.102487 -0.269895 
6.4895 8.1722 0.22242 0.154021 
3.7528 8.2609 -0.0137192 -0.0583997 
9.4914 6.6877 -0.104496 -0.216593 
8.8428 2.5508 -0.0316624 0.160471 
8.5998 12.2323 0.0481387 -0.018168 
7.6533 1.5196 -0.00130245 0.204551 
1.4488 14.1677 0.00134569 0.0118026 
9.9391 4.305 -0.0319385 -0.280851 
5.2156 7.0617 -0.109222 0.168677 
9.0588 1.978 0.122095 -0.143151 
3.6968 7.798 0.0866383 0.0382306 
13.7995 6.7202 -0.0201726 -0.183935 
12.6842 2.883 0.0268735 0.114855 
13.0157 8.227 0.0319449 0.258028 
2.1461 0.9023 -0.100341 0.263378 
11.0699 2.331 -0.0790041 0.29206 
1.7943 7.8587 -0.131337 0.165226 
12.0818 10.6675 0.0257715 -0.0702995 
12.1755 1.0308 -0.0987842 -0.0316222 
6.3111 6.8752 0.057358 0.0277856 
4.8965 3.002 0.0311661 -0.0574653 
13.6116 11.4029 -0.219291 0.0477137 
1.1598 4.052 0.0180138 -0.0870359 
5.5478 9.5164 0.048151 -0.0711106 
12.4087 2.2029 0.0820007 0.0465554 
2.4228 6.4028 0.0486751 0.295004 
4.4906 12.1444 0.0766171 -0.04723 
13.4677 14.3587 -0.00470158 0.0176755 
3.9878 5.2946 0.131588 0.241389 
13.7961 2.0421 -0.134714 -0.00665568 
4.2552 5.0139 0.0940542 0.202576 
13.8086 9.311 -0.0143019 0.035028 
3.5715 10.0376 0.296579 0.0488614 
5.607 6.0465 0.16061 -0.146187 
7.2261 1.2301 0.186435 -0.00110025 
8.5612 8.1859 -0.0705947 -0.0317505 
11.0236 13.5127 0.0671695 -0.0254581 
6.1148 8.3624 0.0561231 0.201384 
11.6122 4.0047 -0.0546994 -0.0632488 
7.8053 4.8323 0.184293 0.0391212 
12.0724 11.0721 -0.251608 -0.0854016 
7.2278 11.556 0.330499 -0.238573 
8.6197 1.0139 0.0676764 0.167122 
6.9833 2.2046 0.107161 0.0104872 
9.8242 2.4862 -0.0715984 0.239351 
10.4265 5.0972 0.0690261 0.0484968 
13.2164 10.2737 0.128482 0.0302327 
1.122 6.5833 0.150429 -0.257229 
2.285 14.5641 -0.0524218 -0.0192639 
5.6753 9.0023 -0.231732 0.0904637 
1.9333 1.1608 -0.129267 -0.152966 
4.2952 1.0501 -0.331941 -0.189494 
6.5959 14.4603 0.137566 0.0919776 
4.1761 7.1173 -0.14446 -0.0842125 
8.513 7.3244 -0.0122142 -0.0241363 
2.9734 2.1477 -0.0527068 0.0246117 
4.6811 7.3798 -0.0511483 0.206138 
8.6234 12.9802 -0.0241925 0.169825 
1.3242 5.5177 -0.0541222 -0.23161 
13.0221 10.0047 -0.0575471 -0.210795 
6.9024 1.1895 0.0427056 0.169341 
9.4269 3.0197 0.231299 0.151005 
4.8071 4.9045 -0.0622142 -0.21426 
3.5875 8.6949 -0.162666 0.135671 
10.3373 7.9769 0.112324 -0.267303 
11.2568 14.5974 0.162902 -0.185588 
0.6862 13.1391 -0.155832 -0.00348006 
8.0784 2.2242 0.145873 0.272126 
12.291 3.5853 -0.171529 -0.0821314 
8.5762 3.3625 0.0673874 0.228343 
6.3263 10.0488 0.0749827 -0.0474642 
10.8485 9.7892 0.27568 -0.0768355 
13.0542 13.8406 -0.114968 -0.186373 
2.2561 10.1197 -0.220311 -0.176906 
2.4002 1.6115 0.151804 -0.102354 
4.8723 1.6715 0.121273 -0.121433 
10.833 11.7965 -0.290429 0.0237453 
11.0752 12.3435 -0.0396444 -0.200365 
3.4602 2.9571 -0.238252 -0.0741854 
1.7732 2.0085 0.0387508 -0.134384 
9.829 8.2645 -0.0494541 0.171862 
13.4683 10.8066 0.0224517 -0.0646767 
11.5369 11.8836 -0.00653336 0.227289 
8.8935 5.7869 0.121638 -0.0419167 
4.5232 2.0451 0.0134664 0.237182 
6.3459 4.7572 -0.214379 -0.137548 
0.5826 11.5642 -0.284732 0.00218489 
10.2556 2.1325 0.0307786 0.175002 
2.8349 3.3285 -0.0497471 -0.206 
5.7246 1.4418 -0.0878727 0.0961596 
1.2458 3.1093 0.168582 0.00794676 
11.0242 9.4822 -0.117915 -0.0503964 
9.3706 7.8972 -0.164704 -0.122897 
6.5795 7.7444 -0.0281013 -0.0947465 
7.3487 4.7036 -0.138406 0.0553459 
6.24 2.9683 0.350822 0.0447605 
10.5685 8.8454 0.0227653 0.021496 
7.0483 12.4901 -0.0906758 -0.0392475 
10.8101 11.361 0.250797 -0.101786 
13.1564 3.7799 0.0361808 -0.117515 
11.5397 2.5297 0.139252 0.209993 
3.6799 2.2708 0.174658 -0.000913194 
7.4496 1.4752 -0.151957 -0.00912665 
12.8697 1.3101 0.235054 0.0754508 
7.2161 10.5859 0.0405816 -0.00860199 
7.8335 2.5216 -0.222461 -0.123873 
10.2815 14.4849 -0.244216 -0.0694323 
7.3347 3.9056 0.058775 -0.00768067 
6.2168 11.0979 0.203612 0.0871043 
1.3833 13.3782 -0.269093 0.103389 
3.18 5.5218 -0.276347 0.0961919 
9.3346 9.9329 0.0492072 0.198741 
5.7776 6.5887 -0.124266 -0.0235568 
10.4798 12.3887 0.191476 0.130327 
8.8462 14.404 0.228263 0.0569509 
11.9594 8.6872 0.0164781 0.196542 
0.9647 14.387 0.206763 -0.0532006 
2.2209 7.0852 -0.104397 -0.27091 
5.5365 13.3876 0.0365417 -0.00421398 
12.9757 4.3787 0.0177725 -0.225576 
10.2628 13.9289 0.0133557 0.107649 
5.2505 13.3228 0.0433185 0.133374 
11.6888 12.8629 -0.0743955 -0.0206367 
3.064 14.5286 -0.111722 0.0758764 
6.6213 2.599 -0.0729388 0.158612 
0.9634 9.3999 -0.298092 0.0531538 
4.0245 11.5163 -0.0659204 0.239446 
6.3164 6.6381 0.101632 -0.0484112 
7.8834 11.8359 -0.0250576 -0.114395 
1.4188 10.5123 0.11035 0.0657532 
9.1206 5.6594 -0.236776 0.0677764 
7.5975 5.0094 -0.0243101 0.0272346 
13.7585 14.5081 -0.12547 0.0770207 
11.3563 13.7044 0.086578 0.108286 
3.4327 12.0462 0.120821 0.0278572 
10.435 9.0222 -0.0359595 -0.0491438 
2.6531 14.6647 -0.224059 0.0318512 
3.8645 1.6746 -0.0490331 0.118322 
3.6688 9.6905 -0.0472019 0.192243 
13.7021 11.9165 -0.121337 0.0592298 
10.2463 14.6968 -0.18489 0.196604 
7.4088 9.7977 0.0511411 -0.192168 
7.5299 4.3228 0.0693478 0.00775723 
2.7392 4.7929 0.0547939 0.183334 
3.1765 1.5433 0.150912 0.0925188 
13.2501 2.7134 -0.19194 0.0786879 
9.0065 4.598 -0.0445374 0.130652 
1.2359 3.7176 0.112494 -0.0736518 
3.675 5.6359 -0.0554199 -0.150907 
12.2468 8.1291 -0.132191 -0.164643 
2.9313 7.149 0.146582 -0.0317011 
7.0925 13.1859 -0.0962644 0.163891 
7.1047 4.3605 -0.224898 0.108369 
2.7542 11.2271 0.0916223 -0.149311 
7.9613 14.13 -0.129857 -0.0174479 
11.6144 5.1026 -0.331718 -0.140951 
0.768 7.1466 0.0413211 -0.04528 
4.3456 9.3517 -0.147141 0.0374852 
3.676 4.1595 0.0291337 -0.196011 
13.2004 7.9062 -0.2426 0.130791 
5.7065 13.1965 -0.130307 -0.339929 
11.0875 8.103 0.0597332 -0.0705195 
10.4251 1.5551 -0.0528818 -0.00111963 
12.8654 13.284 -0.0656585 0.132716 
4.7701 1.3663 -0.0196166 -0.172652 
9.9239 13.4042 -0.00034079 0.152733 
7.6968 10.8722 0.197552 -0.198095 
7.5042 7.4846 -0.00138265 -0.0795493 
2.0869 11.6056 -0.0936313 -0.0488503 
6.5442 3.2554 -0.208605 0.0436648 
1.5281 13.9448 0.0818769 0.154403 
5.144 7.4288 -0.308569 0.0486527 
13.9141 5.0975 0.0144048 -0.0298343 
5.2888 5.2369 -0.0831747 0.183572 
6.3156 9.3012 0.232096 0.0431347 
2.9251 0.9004 0.183284 0.154968 
1.0596 3.0124 -0.0112627 -0.128245 
12.3031 6.2199 -0.0338876 0.141326 
1.1611 12.1327 -0.212461 -0.0181767 
8.8507 13.5561 -0.0526122 0.0374602 
11.1099 4.4981 0.0346383 0.110371 
9.3401 10.167 -0.0532092 -0.155501 
2.266 6.1867 0.0433587 -0.0214865 
8.5552 7.5805 0.186691 -0.0417254 
4.436 4.7533 -0.0377641 0.146356 
11.5954 13.8622 0.0991326 -0.0912816 
3.1632 2.919 -0.111982 -0.183224 
8.3188 12.2049 0.148106 0.0423173 
7.9855 4.1679 -0.139361 0.270198 
9.8216 0.7959 0.162219 0.172608 
12.1431 14.5738 -0.196737 -0.0442619 
2.4901 14.2608 0.0769832 -0.0767899 
12.5287 5.763 -0.103198 0.24942 
1.9177 13.8111 -0.116051 -0.221343 
5.7939 5.5767 -0.0273168 -0.201451 
1.5852 7.9382 -0.0612353 0.309671 
7.8111 7.7801 0.0519222 -0.142198 
1.5225 4.9673 0.0408272 -0.122731 
7.1235 5.98 -0.218344 -0.0434171 
5.0273 11.2853 0.069915 -0.0670878 
4.4118 11.7305 0.178903 -0.108242 
8.2084 13.0611 0.157008 0.205178 
9.9264 9.467 -0.282522 -0.0901271 
3.719 12.9785 -0.0415206 0.246655 
3.6481 10.7352 0.269956 -0.0735743 
11.6184 11.1102 0.0438929 -0.151153 
8.323 8.8374 -0.244256 0.05276 
10.5941 11.3277 -0.0306929 0.0737871 
10.505 6.5153 -0.106113 0.0181538 
2.9796 0.5476 -0.0237155 -0.162436 
10.3031 5.4177 -0.175628 0.196042 
10.0945 1.2012 0.148915 -0.161767 
5.1657 1.6442 0.0785493 -0.0230521 
13.6549 12.3991 -0.234897 -0.0664667 
10.4149 10.1541 -0.256701 -0.076349 
9.5427 12.6582 0.0208252 -0.210547 
3.8395 4.606 0.0892194 -0.223388 
11.2775 2.8822 -0.0132333 -0.0904801 
5.8407 8.6716 0.127306 -0.110351 
11.5283 8.4094 0.105372 -0.0971192 
11.4088 5.8389 -0.185823 -0.0560942 
12.4954 14.7439 0.188611 0.0244774 
12.0243 11.5163 0.140096 -0.156583 
10.8248 1.725 -0.0521266 -0.00224929 
0.6089 7.5274 0.0804384 -0.0319441 
8.8395 13.7933 -0.337151 0.102543 
5.4144 10.5339 0.128186 -0.116131 
7.1135 3.1322 -0.0991326 -0.160986 
1.8637 13.4237 -0.0839295 0.0168713 
3.5668 4.647 -0.1589 -0.12491 
11.8074 1.6612 0.111572 -0.0306379 
6.2843 2.6477 0.256027 -0.0034089 
3.6273 6.0991 -0.124181 -0.0130878 
9.5679 5.1431 0.0750893 0.0209016 
11.1973 11.7172 -0.0186617 -0.0387097 
7.2244 14.6865 0.0405767 -0.0482702 
2.1723 9.2214 -0.0339239 -0.0494112 
2.0772 3.2102 0.329372 -0.0724155 
11.5172 12.3677 0.000320082 -0.0245588 
3.933 12.5426 0.290215 0.202046 
7.1142 13.7026 0.261193 0.0443675 
5.7046 5.1681 0.0120785 -0.0124409 
6.9209 9.4702 0.19788 0.042076 
6.0919 12.131 0.112204 0.124012 
6.508 9.6671 -0.036353 0.269099 
2.5735 8.1237 -0.018428 0.140596 
6.8569 13.805 0.0319174 0.247 
19.2848 11.0194 -0.101096 -0.18995 
20.8745 7.129 0.147275 0.0302183 
26.3537 2.8807 -0.155994 -0.0475487 
24.1495 3.366 0.100175 0.0937421 
19.096 13.1978 -0.124975 0.141073 
14.0537 12.0472 -0.069876 -0.0956481 
17.2483 7.8679 -0.0786102 -0.238034 
20.928 11.7084 -0.0587284 0.0784321 
21.173 9.9945 -0.236311 0.203058 
25.428 10.152 0.0352173 -0.0721152 
21.6217 2.2006 0.0222045 -0.214209 
27.0619 5.5889 0.0168758 0.158177 
15.8955 5.3906 -0.0424962 -0.114402 
26.3842 14.7656 -0.0132576 0.348075 
23.1805 5.0446 0.0779424 0.175359 
22.4852 8.3381 -0.0439634 -0.0398852 
19.4039 4.7464 0.110844 -0.0726455 
21.9157 5.9082 0.118064 0.0880473 
20.3821 7.382 0.0490135 0.0203364 
24.1965 2.7154 -0.00669208 -0.0347663 
18.69 3.8811 -0.402034 -0.00174401 
14.0973 3.1438 0.219178 0.0714233 
27.3423 8.8053 -0.0898976 -0.0259695 
14.0616 12.9136 0.128065 -0.0317867 
27.5591 13.7624 -0.033455 0.145976 
25.9999 1.5174 0.225719 -0.148039 
22.3957 7.1317 -0.243776 -0.0177067 
27.0628 0.672 -0.0707126 0.202602 
23.734 3.8995 -0.193509 -0.0156158 
19.0493 5.8443 0.057777 0.0725351 
21.5039 4.1269 0.0753767 -0.350641 
23.0719 9.8126 0.192741 -0.0939433 
19.8617 4.6688 -0.145763 -0.104909 
15.9037 14.3502 -0.142727 0.0478879 
16.2084 5.3701 -0.031672 0.124283 
20.4176 14.0643 0.232328 0.136018 
21.9279 10.4765 -0.183325 0.17144 
17.7335 2.4856 0.0912448 -0.184531 
27.6198 5.3037 -0.102106 0.00270732 
24.3069 12.1825 -0.0440299 0.189222 
25.7516 1.3786 -0.0883275 -0.0657782 
17.9342 9.0627 0.0228607 0.0635071 
17.5137 12.2226 -0.0631463 -0.0597657 
24.3853 1.2607 0.0841336 0.0175185 
27.7596 10.8432 0.0981263 0.0413841 
25.8235 5.3741 0.0655476 -0.0676675 
17.6948 13.2084 0.015637 -0.0340608 
20.8959 14.2247 0.0866126 -0.225652 
24.1974 1.7395 -0.0902702 0.220122 
17.0142 4.8548 -0.242516 0.0676484 
16.8353 10.1542 0.0360302 -0.0667749 
22.7555 4.6765 -0.162128 -0.0315315 
24.1525 8.7915 -0.181857 0.0281819 
14.998 8.8086 0.00668236 0.0802509 
21.3483 8.1545 -0.00621117 0.0803976 
20.4054 5.4957 0.18047 0.101187 
17.3907 3.5934 0.233618 -0.0263919 
17.6938 13.5093 -0.0048079 -0.0473208 
27.1727 13.3449 -0.219484 -0.00727444 
15.9734 9.5284 0.0491748 0.220482 
25.2255 2.0168 -0.161631 0.0672163 
18.5539 10.789 0.1509 0.0544108 
16.0455 6.0605 -0.201105 -0.0265244 
25.1848 9.8573 0.132278 -0.275619 
26.7505 10.4782 -0.272428 0.00418804 
26.8166 10.8647 0.158264 0.125658 
17.3049 12.4498 0.00550166 -0.103304 
18.0851 5.3219 0.128696 0.252409 
14.6132 10.5654 -0.0909449 0.175696 
19.9864 14.4168 0.170464 -0.18639 
20.3841 13.7209 -0.049705 -0.0847394 
16.3985 5.0913 -0.265299 -0.0203473 
17.823 11.1369 0.105989 -0.0279533 
18.8993 4.2535 -0.0415868 0.151598 
23.5014 5.5657 0.0276952 0.0142899 
17.0813 9.7682 -0.0755565 0.0687591 
14.8939 0.5855 -0.00324077 0.0893452 
21.3353 0.503 -0.135297 -0.0794319 
19.7434 7.3085 -0.0256388 0.0256829 
14.0923 7.9423 0.330568 0.0144918 
14.6672 10.9827 -0.167898 -0.0859841 
27.7636 12.2337 -0.256266 0.0780874 
22.2727 11.1525 0.00509155 0.0627891 
24.3075 7.5633 0.143323 -0.028 
25.7088 2.1744 -0.0865319 0.0597258 
16.9974 12.2617 -0.118836 0.214227 
18.5666 11.1203 0.121657 0.218112 
21.1714 12.597 -0.0914058 0.301297 
21.42 4.5545 0.199682 0.116534 
21.6002 5.6275 -0.0105861 0.0210056 
20.1209 7.4181 -0.0454326 -0.179453 
22.9343 7.1955 0.162426 0.0595983 
26.9397 3.1051 0.101434 0.0878192 
20.7169 2.4327 0.0255575 0.0490826 
24.0019 6.9773 0.253458 -0.0134048 
27.1219 3.6736 0.155274 0.0652731 
16.402 6.7867 0.0326448 -0.156414 
17.4803 4.8067 0.0739749 0.0667242 
16.6529 7.5663 0.138627 -0.285254 
14.8032 4.1897 0.238252 0.105577 
19.0019 5.4264 -0.144414 -0.0105724 
23.1421 5.4765 -0.0417009 0.0788763 
27.3698 6.5833 -0.106981 0.310604 
23.2362 12.0779 0.0845633 -0.0268588 
16.3511 7.4669 -0.172234 -0.141373 
21.1695 12.3201 -0.0719989 0.113647 
20.6438 13.1838 -0.11917 0.103264 
15.0861 9.0868 -0.0604097 -0.165034 
21.0925 7.7972 0.0484967 -0.121747 
15.7705 2.1884 -0.0458833 -0.224259 
21.9831 9.0295 -0.0868279 0.29948 
26.1163 4.4951 -0.255935 0.174599 
21.3917 5.1845 -0.000173886 -0.299428 
15.6698 4.032 -0.156918 -0.100495 
24.261 9.028 0.0472782 0.358459 
27.202 4.3767 0.193623 -0.236755 
19.5405 1.8595 -0.105433 -0.0808393 
25.5607 1.544 -0.240406 0.000597485 
27.6869 7.0287 -0.256507 0.302201 
25.7851 2.6016 -0.0382538 -0.0042076 
25.1675 11.8371 -0.108011 0.0933086 
21.456 6.101 0.184786 -0.0365561 
19.8383 11.688 -0.136439 -0.00937255 
15.1415 5.1192 -0.104456 0.014573 
16.2216 3.2207 0.0966746 -0.0298521 
24.4895 11.4706 -0.0682071 -0.053154 
23.1479 11.531 -0.0856633 0.0769306 
24.8445 1.0437 -0.216988 -0.121957 
21.8963 14.0706 0.0267783 0.0675554 
15.7898 1.0174 0.0227525 0.124981 
23.0349 9.5721 0.0421736 0.0126054 
25.9178 12.0413 0.057867 0.00419868 
17.1124 3.2759 -0.0718442 -0.217274 
19.9193 10.7133 0.095045 0.075362 
27.4797 14.3309 0.131514 0.0119477 
27.0496 13.945 0.25708 0.189508 
22.5014 14.1769 0.194274 -0.0935944 
24.7735 8.5686 0.242878 0.307565 
21.0083 8.6788 0.00350103 0.0590461 
20.5705 6.8152 -0.0388827 0.119346 
18.1299 13.4039 0.0399307 0.0165533 
18.7675 12.367 -0.0636135 0.050928 
14.9617 3.7632 -0.0269659 0.154104 
21.9073 4.0555 0.00422877 0.0744123 
26.9366 12.3049 0.14085 -0.0401187 
22.5079 14.4387 -0.0017718 -0.176095 
20.2769 8.9856 0.193375 0.139607 
23.6386 8.7389 -0.0249186 -0.0596083 
15.9449 8.7188 0.148277 0.0908939 
15.6916 12.1207 0.0093768 0.166319 
20.6035 3.129 0.00865475 0.203625 
27.3764 12.3907 0.0686457 -0.0109374 
14.8673 2.2143 0.142119 -0.0815851 
25.2185 10.3493 -0.125962 0.0921417 
25.4796 3.7648 -0.00719261 0.0125776 
23.9268 13.8041 0.0773619 0.110958 
16.4386 4.3015 -0.0368884 0.0242214 
14.08 11.0863 0.217439 -0.159844 
16.5604 1.2154 0.00553095 -0.145627 
23.6506 4.5644 -0.00133805 -0.186051 
23.4127 2.3739 -0.157529 -0.0244274 
17.7578 4.6256 0.0916305 0.0719922 
16.6701 7.9959 0.17625 -0.193199 
20.9675 12.046 -0.072328 -0.169282 
23.1105 11.7396 -0.0865794 0.170069 
21.7222 2.5392 -0.0310361 -0.0338153 
16.5622 12.6902 0.0769378 -0.0424583 
16.1482 1.2226 0.00612825 0.2562 
18.693 7.8918 0.184972 0.278411 
22.0958 10.8536 0.123255 -0.00106517 
18.9305 2.0482 -0.294706 -0.160259 
27.1855 2.5738 -0.140442 -0.0581559 
21.0009 6.9065 0.0753661 0.0180439 
14.5128 1.3905 0.219791 -0.0595173 
21.3399 2.5544 -0.171334 0.0242637 
25.7228 3.0787 -0.12394 0.204513 
23.0246 7.4528 0.0715983 0.16759 
20.7625 7.7073 0.0957018 -0.07061 
16.5458 2.1326 0.101248 -0.245375 
14.2335 1.3943 0.137698 0.0268333 
18.2418 1.2798 0.0795979 0.0660965 
17.2862 0.7447 0.0436671 0.00732055 
19.9812 13.0875 -0.0702715 0.108706 
18.4757 13.3277 0.0850144 -0.0486127 
27.1793 8.2963 0.0127365 -0.0283172 
26.1311 2.6982 0.0945547 -0.29842 
17.9607 9.2998 0.152633 -0.0397425 
26.6599 10.1572 -0.0398571 0.00349204 
20.6243 4.8834 0.275902 0.00986578 
23.1034 0.6237 0.149674 0.0827759 
25.8538 5.771 0.0673215 0.148656 
14.7136 6.0589 -0.281061 -0.00243387 
27.7108 4.7239 -0.075226 0.0460941 
16.8612 2.7858 0.182495 -0.388138 
15.3335 2.5541 0.185553 -0.0299056 
20.1342 13.8375 0.197225 -0.151614 
21.3718 13.1002 0.0293594 0.0160302 
19.4901 3.3963 -0.191292 -0.220214 
15.8502 6.5057 -0.0819975 -0.154152 
22.8484 2.7125 0.347128 -0.09276 
22.1695 4.3677 -0.0218981 0.0226279 
24.6644 13.1128 0.310181 0.0575003 
27.2631 9.4615 -0.0851023 -0.0133579 
23.8947 13.5967 0.189331 -0.16389 
16.5039 13.0964 -0.104174 0.157597 
23.5057 12.1125 0.0564285 -0.0237379 
20.7613 1.7378 -0.119902 0.313542 
26.1298 1.7873 0.202505 0.0106205 
15.1054 13.6537 0.0358821 -0.161696 
25.6145 7.9425 -0.141897 0.025013 
26.059 14.4743 0.146704 0.188555 
16.2435 2.308 0.191957 0.0175452 
25.8781 12.9452 0.162284 -0.0211258 
16.9732 12.526 -0.0517996 -0.0152563 
22.108 9.4539 0.259344 0.0103086 