ITEM: TIMESTEP
0
ITEM: NUMBER OF ATOMS
1680
ITEM: BOX BOUNDS pp pp pp
0.0000000000000000e+00 2.8000000000000000e+01
0.0000000000000000e+00 1.5000000000000000e+01
-1.0000000000000000e+00 1.0000000000000000e+00
ITEM: ATOMS x y vx vy 
7.2835 1.2008 -0.117329 -0.0577687 
3.3858 4.2969 0.193735 -0.218729 
2.9649 8.1735 0.0837813 -0.0638997 
10.5648 14.7434 -0.21886 0.112269 
5.2242 5.8484 0.248896 0.0319512 
8.5175 11.2876 0.272768 -0.102329 
5.6503 13.4763 0.0874481 -0.184148 
9.9572 2.3773 -0.0993095 0.0895287 
3.1641 3.8288 -0.278949 0.262921 
5.9404 2.1826 -0.0813867 -0.0175686 
4.8858 12.2749 -0.217459 -0.18235 
12.1353 12.1644 0.0340585 -0.0836157 
0.804 6.3423 -0.105815 -0.212949 
10.8582 1.7696 0.165153 -0.109087 
5.6571 10.9656 -0.134007 0.132605 
0.8492 1.9391 0.140377 0.218245 
9.2689 8.9905 0.309672 0.261826 
13.3152 7.7669 -0.21799 0.155878 
10.1156 8.2109 0.0688025 -0.198426 
1.4585 3.262 0.086591 -0.228102 
3.5631 9.0435 0.356525 0.0234491 
5.8583 7.0561 -0.00790755 0.188543 
1.1324 5.605 0.248906 0.0828635 
12.7866 10.3831 0.37658 0.218037 
7.7718 14.2263 -0.179061 -0.0452452 
9.6382 1.4816 0.00540856 -0.0411072 
2.0677 3.7241 0.11348 -0.129636 
10.0114 12.1212 0.199715 -0.114065 
2.6001 13.9168 0.0195588 0.160858 
10.1525 12.3098 0.0764009 -0.0674773 
4.8602 2.6664 0.0165082 -0.0632278 
9.8382 13.3468 0.172849 0.12816 
8.4456 11.0098 0.0337224 -0.180955 
3.8237 7.624 0.138787 -0.0714748 
7.6903 2.398 -0.0688769 0.128768 
2.0207 13.8598 0.0863946 -0.111403 
8.2855 4.089 -0.070521 0.0538571 
5.1106 9.4232 0.0571365 0.320661 
13.9991 14.4237 0.230494 -0.105343 
11.5405 8.8652 -0.204522 -0.0202383 
13.8273 14.7569 -0.0733954 -0.192601 
6.4459 3.615 -0.0856516 -0.167978 
12.5623 12.8084 -0.103873 -0.142179 
5.3077 6.073 -0.0456506 -0.00282067 
8.0986 10.2737 -0.0480423 -0.00184528 
1.3153 10.9203 -0.19002 0.266426 
3.9074 10.06 -0.0553874 -0.0235254 
6.9888 1.2953 -0.123212 0.0785323 
10.7652 0.7609 0.226813 -0.0810299 
4.5228 10.503 0.0271964 0.0759976 
1.8312 14.0381 0.150831 0.0604442 
10.4941 8.4722 -0.0107228 -0.0689269 
0.578 9.6328 0.0555818 0.125888 
7.8976 12.4147 -0.0254129 0.0838539 
10.4738 2.4691 0.0256718 -0.00982708 
5.0698 14.2322 0.0417003 0.0620778 
2.4145 5.4256 0.0926372 0.0827383 
11.802 13.4364 -0.189241 -0.0274255 
4.1389 10.0342 -0.0954598 0.167366 
1.8621 1.4762 -0.305883 0.00278732 
8.1272 10.5945 4.29615e-05 -0.0496517 
4.839 8.0163 0.134122 0.0899614 
8.242 12.2209 0.00182081 -0.00345354 
5.1637 10.8025 -0.0793916 0.0299868 
4.9764 7.4548 -0.0378056 -0.0311012 
9.6052 14.6594 0.11278 0.0780339 
7.976 5.0355 0.232578 -0.00850988 
9.9259 5.5645 -0.25678 0.0404541 
7.8808 1.3757 -0.316786 -0.154212 
11.5796 1.5707 -4.72757e-06 0.159781 
8.7632 10.0485 0.234437 0.0545832 
1.5218 6.0542 0.279645 0.0070401 
8.0353 6.8912 0.13304 -0.067701 
6.9267 9.0647 -0.0715909 0.148703 
13.749 12.0986 0.0188509 0.165523 
2.2643 8.9703 -0.0831542 -0.103476 
4.158 2.9576 0.0755827 0.0678182 
12.7743 11.1266 0.125553 -0.016369 
11.7038 8.0484 0.0536899 -0.143613 
4.1928 3.5344 0.0873983 0.118261 
12.4293 8.1934 -0.0555529 -0.153494 
12.4488 4.0668 -0.152479 -0.062047 
8.6327 1.0914 -0.0338845 -0.138517 
3.4798 12.1741 0.242816 0.014905 
3.9295 1.3808 -0.00510759 0.0480693 
4.9649 8.4772 0.0243984 -0.149565 
2.8259 1.8584 -0.138802 -0.0285442 
11.9653 8.5478 0.0579025 -0.113376 
7.7947 3.5509 0.143434 0.268182 
4.9995 0.7583 -0.023252 -0.000841086 
7.6357 2.8015 0.150929 0.080072 
6.5202 11.0194 -0.157884 -0.102829 
13.0147 9.6309 0.270539 0.0479066 
6.8623 8.7861 -0.0948695 -0.0540546 
9.1316 6.6961 -0.09986 -0.264515 
11.9961 7.447 0.21984 -0.124938 
8.3787 9.6413 0.333097 0.157325 
4.1015 5.5153 0.00491556 0.0888726 
2.532 4.1225 0.235732 0.0287896 
3.4576 2.2664 -0.0167683 0.119676 
10.5511 1.2273 0.128322 0.0203242 
1.4965 10.1293 -0.178735 -0.0350146 
2.8126 5.5822 0.149951 0.0536927 
12.2705 2.7447 -0.139864 -0.103013 
11.9601 6.0818 0.102743 0.0985301 
2.3356 8.2622 0.301618 0.196295 
12.3497 12.6895 0.20649 0.0692208 
7.8374 13.4866 -0.219039 -0.0753032 
2.271 12.7497 0.221566 -0.105874 
11.081 13.155 -0.077272 -0.021506 
10.7409 8.2679 0.0217313 -0.0883522 
9.4692 9.6552 -0.0888133 -0.132716 
9.1178 5.5826 -0.14953 -0.065208 
4.5214 13.4719 0.237865 -0.11283 
1.6421 6.3231 0.169497 -0.0110107 
3.1811 10.2811 0.0299879 -0.362871 
10.8459 13.0214 -0.184019 0.181336 
12.2508 1.8917 0.287834 0.191223 
4.7866 1.6266 -0.147866 -0.111568 
1.6871 12.6883 0.142773 0.169511 
13.9432 6.105 -0.0103828 0.0473707 
6.2643 13.444 0.104473 0.0837262 
5.8234 11.9276 0.0807242 0.136668 
4.2239 13.3564 0.0186865 -0.138736 
1.7295 5.4026 -0.0483625 0.226238 
13.4769 5.3457 0.168147 0.244369 
5.2548 11.2014 0.0934228 -0.139982 
8.3418 0.8348 0.175426 0.0784818 
10.1713 10.2811 -0.327373 -0.0582551 
9.4539 10.0414 0.0314438 -0.0799322 
3.6739 12.255 -0.16605 -0.139969 
13.3634 6.5769 -0.116644 0.226565 
0.9094 10.5116 -0.241026 -0.212984 
10.2943 13.786 -0.0725278 0.00114553 
0.9952 13.3279 -0.0580495 0.343324 
0.679 1.7728 -0.099777 -0.0797299 
3.0643 7.1388 0.0955873 -0.261651 
12.1568 5.2587 0.0544902 -0.0185203 
1.9784 0.7537 0.131729 0.191671 
11.356 1.9707 -0.177954 -0.00642785 
12.7955 2.8134 0.181445 0.267575 
13.5395 13.4555 0.0601633 -0.469672 
3.903 3.2542 -0.0666204 0.0114316 
4.3084 1.0602 -0.0769679 -0.275847 
6.6553 5.1473 -0.056202 0.203925 
6.0917 8.1163 0.209699 0.0518472 
6.486 9.6339 0.0960185 0.0570868 
3.4954 6.5118 0.0123267 0.0960095 
7.3629 2.986 0.0955144 0.0435725 
9.0098 5.0626 -0.0347714 0.0475042 
11.1474 2.3175 0.318238 -0.188668 
8.8206 9.1862 0.0620084 0.0754406 
13.2701 14.6679 0.0631428 -0.197881 
12.3333 0.6498 -0.0200491 0.178822 
12.9165 2.5464 -0.110387 -0.205575 
8.8397 4.2517 0.172831 0.22719 
11.2143 3.82 -0.0429041 0.0413373 
12.238 6.4221 0.260951 -0.0753689 
7.3692 4.1249 -0.0263305 -0.454663 
1.8566 8.0142 -0.307011 0.0106032 
6.6019 2.7297 -0.0032053 -0.0348267 
2.2973 1.7016 -0.0170906 0.128993 
8.6718 4.9627 0.220818 -0.344881 
5.5233 7.5887 0.105361 0.171804 
2.2886 1.0049 0.039925 0.0635083 
1.3404 4.8712 0.136876 0.0921242 
1.8421 8.3581 0.0297913 0.102691 
10.3395 6.2907 0.0263784 0.222723 
8.6673 8.7301 0.073299 -0.0628088 
2.6189 11.948 0.0200843 0.12365 
5.1733 4.8888 0.112827 -0.0560831 
13.764 7.7949 0.128076 0.0727767 
8.2315 8.9952 0.0389679 -0.0376636 
13.5076 2.1413 -0.0773186 0.133717 
5.5752 8.3317 0.110589 0.0807127 
3.262 8.5409 0.102323 -0.0653228 
10.9351 6.8329 -0.185081 0.134356 
3.7961 5.2907 -0.180443 -0.15523 
9.0578 0.5879 0.187973 -0.031454 
8.1567 13.7595 -0.147749 -0.00729997 
4.8159 11.5257 0.0451009 -0.0413752 
1.396 13.2206 0.10639 0.0129228 
12.0123 7.1749 -0.0855652 0.0759171 
6.3395 6.1704 -0.0370456 0.154106 
0.9496 11.8581 0.246155 -0.165044 
5.4914 11.9883 0.134843 0.00580715 
3.0011 12.1943 -0.135514 0.100526 
10.3289 2.9655 -0.153119 -0.00824698 
12.6059 0.5008 -0.11172 0.044064 
3.375 8.1686 -0.0270988 0.107663 
11.6524 1.1731 0.0261007 -0.205499 
8.7962 3.995 0.0887068 0.0552927 
7.2722 9.5697 0.145464 0.227021 
3.9028 12.0507 -0.200082 0.174263 
2.923 2.9247 -0.179451 0.00537569 
6.9057 3.5213 0.167185 0.0555919 
5.8165 9.543 -0.115067 0.0383673 
2.4767 0.7307 -0.0734507 0.101716 
6.0945 14.482 0.0286263 -0.217463 
1.1118 12.0644 -0.0163918 0.0208962 
9.4161 11.4 0.307529 -0.0650626 
11.6899 11.1008 0.150866 0.0497401 
13.6034 11.6856 0.160146 0.0138733 
6.2091 13.0485 0.214498 0.0085112 
13.294 6.8604 -0.0321237 0.0844725 
9.7029 7.123 0.0258146 -0.066139 
9.4551 4.3459 -0.00494131 -0.17014 
1.387 9.445 -0.0416337 -0.0524053 
3.3371 6.799 0.0358433 -0.0867435 
2.8668 5.8195 0.109805 -0.171038 
8.0217 1.883 -0.0857358 0.109058 
3.2788 6.5171 0.159354 0.0392782 
5.6815 9.0275 -0.148023 -0.223922 
11.422 6.2589 0.126578 0.0425363 
5.5001 12.6496 0.0315858 -0.326095 
0.5257 7.477 -0.102 0.183026 
3.452 1.1309 -0.109394 0.119669 
8.1817 5.6966 -0.0982035 0.136478 
11.094 11.5878 0.00925515 0.0322112 
8.7385 7.2317 -0.0986907 0.107321 
5.9128 3.8605 0.142981 0.131575 
7.4809 6.85 0.0181177 -0.0839026 
13.9187 13.5981 0.2801 0.0619822 
2.2878 7.0936 -0.0865429 -0.169549 
1.6861 10.6584 -0.134412 0.201307 
8.1208 11.8642 0.0281891 0.128957 
7.4677 12.3084 0.171547 -0.0600966 
10.0902 10.9546 0.0624335 0.147134 
1.1681 1.6523 0.126575 -0.172209 
11.587 2.8229 -0.169255 -0.255203 
6.949 12.0944 0.0218927 0.505871 
9.8534 7.5136 0.236499 0.0939708 
7.4406 5.0633 -0.0173362 0.0888002 
11.9374 1.9574 0.0140771 -0.0666517 
2.1756 12.9358 0.196814 0.0119365 
1.1858 3.0095 -0.0304196 -0.094161 
6.4998 4.3938 0.0209504 0.128925 
9.7491 3.4643 0.0448382 -0.282203 
1.9023 13.4188 -0.187124 -0.356593 
6.2336 11.4053 0.11249 -0.0839059 
12.2439 10.6035 0.363313 0.184499 
5.3286 7.0753 0.109887 0.223985 
1.449 11.1375 -0.144166 -0.0330963 
4.5144 1.7419 -0.106266 -0.0333463 
10.4725 1.9709 -0.0180196 0.0192105 
1.8833 5.1814 -0.000345486 0.1472 
5.2148 11.6942 0.210893 -0.00746991 
5.4319 5.9114 -0.206946 -0.0106533 
12.8472 1.2865 0.0997654 0.109474 
7.2059 12.9857 -0.0388001 -0.0167596 
10.9492 3.7431 0.103163 -0.128935 
7.5713 10.9088 -0.00790182 0.0391883 
1.4129 0.7228 -0.0714732 -0.147262 
4.2839 14.7083 0.0302112 -0.0347724 
5.1844 8.2895 -0.124681 -0.0508718 
1.5161 2.5128 0.0137903 0.0129354 
3.4058 11.5952 0.059382 0.135247 
10.0041 4.4882 -0.128628 0.11207 
9.7816 5.107 0.150102 -0.00640525 
7.1788 12.3584 0.115281 0.10785 
2.6333 3.8601 -0.198863 0.0190758 
9.3836 7.583 0.21274 0.244403 
11.5653 10.008 -0.313601 -0.0276747 
5.2484 0.9515 0.0953446 0.136776 
3.587 10.5467 -0.0165754 0.00491758 
7.5209 5.6097 -0.0436399 -0.0691268 
8.3089 6.9291 -0.136958 -0.20726 
12.9691 5.5606 0.0203699 0.238633 
3.7919 8.1996 -0.0282043 0.0401136 
5.8306 14.1906 0.0797091 0.0173786 
0.6981 5.0954 -0.177436 -0.0786144 
7.4927 6.393 0.129935 -0.0107444 
9.0922 12.7002 0.0425239 0.117384 
4.9612 2.1251 0.0723441 -0.0977454 
12.0756 4.4505 0.0983336 0.049561 
6.3391 7.9466 0.0596336 -0.00668846 
7.7234 4.6853 0.138516 0.0787771 
1.0093 4.0395 -0.106058 -0.105206 
0.6553 6.7375 0.0154263 -0.120479 
3.6418 0.5497 -0.131216 0.226698 
2.8347 11.4994 0.0622742 -0.115687 
9.7517 3.7328 0.136475 0.260493 
5.0715 6.8111 -0.0306995 -0.160414 
7.4676 14.0419 -0.206559 0.13363 
2.3187 13.7683 0.233524 0.107492 
7.3384 11.6407 0.134089 -0.0359516 
6.2661 11.7961 0.00997358 -0.148496 
13.7893 7.0123 0.0462353 -0.194558 
7.2531 14.5352 0.0139269 -0.131287 
7.3336 11.1066 -0.178846 0.142151 
7.3194 12.129 0.288865 0.158703 
13.4692 1.4278 -0.0171478 0.246723 
13.6524 8.5831 -0.0426271 0.0800237 
8.8077 11.0205 -0.334722 0.11962 
9.662 8.7083 0.0596519 -0.123248 
12.6041 7.8271 -0.270307 0.12093 
5.5724 5.5559 -0.0954317 -0.0398 
11.8387 3.0936 0.132762 -0.199464 
8.7739 8.1468 -0.00250094 -0.145418 
1.9953 13.6279 -0.128405 -0.0400059 
13.9102 9.1165 -0.0374331 -0.0729386 
13.5797 5.7901 -0.0261094 0.18023 
12.8296 7.8666 0.0874412 0.0854569 
11.5661 11.3525 -0.0893155 0.00451971 
1.2632 9.6222 0.172076 0.106194 
12.7265 3.8049 0.0089598 0.0614722 
1.1704 12.3201 0.00850235 -0.238019 
0.7028 13.9245 0.0562084 0.130217 
11.6124 14.7119 0.106539 0.00284489 
7.6108 4.014 -0.336852 0.282861 
11.9823 1.4971 0.16607 -0.00177962 
5.7084 2.2725 -0.181901 0.116693 
2.3085 12.3191 0.0824324 0.055283 
12.1352 10.2993 0.137206 0.146721 
12.4244 2.4065 -0.293252 -0.0603403 
6.5213 5.6938 0.0612885 -0.0456354 
10.1144 7.7279 -0.113424 -0.126521 
9.4704 9.3481 -0.120452 0.0660508 
12.6961 11.7931 -0.016181 -0.178407 
12.3435 11.083 -0.0890531 0.158537 
2.6944 10.0473 -0.0527171 -0.0909319 
10.9939 9.5835 -0.13548 0.0764463 
6.7688 6.2014 -0.069566 -0.270511 
12.5653 6.7668 0.103332 -0.201659 
11.3043 7.4478 -0.234859 -0.0262146 
13.2831 12.8603 0.130083 0.133745 
4.822 10.0875 0.125103 -0.014749 
7.3615 2.0527 0.370855 0.0847582 
2.8491 9.4818 -0.0217608 -0.114433 
7.0398 1.8013 0.120682 0.0721192 
2.0704 3.9251 0.182602 0.0765714 
5.665 1.2729 -0.00634051 -0.138621 
3.879 6.9908 -0.266082 0.0867668 
5.3697 6.815 -0.00935653 -0.0854286 
6.286 1.4333 0.115805 0.0151347 
4.8185 1.3445 -0.0160179 -0.0956748 
11.6745 6.1981 -0.22011 -0.00991356 
4.5412 9.6646 -0.014669 0.178421 
2.5697 9.8119 -0.0320987 0.0755414 
12.9525 9.9013 0.103577 -0.0799347 
4.8817 10.9085 -0.0932456 -0.0842148 
2.2461 4.9058 -0.14147 0.0187889 
3.465 12.8587 -0.181889 0.115511 
9.6552 12.858 -0.0142557 -0.229892 
11.0974 5.6857 0.087606 -0.129588 
10.2491 10.4785 0.250506 -0.0188855 
3.3146 11.1508 -0.0486671 0.124972 
10.6154 3.1046 0.0435791 -0.043607 
7.8521 10.0843 -0.146623 0.0240221 
11.1643 10.9276 -0.122502 0.291362 
10.4087 13.0476 0.0290287 0.0170812 
13.042 7.8272 -0.205116 -0.208243 
12.3139 14.6821 0.154763 0.00943234 
13.438 10.9029 -0.343144 0.32092 
0.9593 10.1119 0.0846191 0.244381 
13.0996 10.9602 -0.139255 -0.0979008 
2.9139 7.3059 0.0790368 0.025035 
0.7148 9.1862 -0.192545 -0.0714278 
11.3432 11.5798 -0.424726 0.00366608 
0.7561 10.2954 0.104368 -0.14542 
3.8708 11.4198 0.209008 -0.288484 
11.4397 6.0416 -0.0201122 0.0797401 
12.6418 13.6535 -0.0133039 0.0854915 
0.586 14.3173 -0.117296 0.10688 
5.4294 8.1937 0.0289511 -0.22906 
9.3785 6.2587 -0.22672 0.0714108 
9.0767 9.5187 0.134155 -0.0116794 
1.1261 4.6603 0.0228781 0.0604847 
9.5244 12.4187 0.113944 0.102068 
9.0024 14.2885 0.0371348 -0.0493254 
0.5136 7.7674 0.250881 0.0658339 
12.917 3.721 0.204064 0.0136145 
1.0227 0.5973 -0.0122339 -0.111936 
3.8004 9.4076 0.0342073 0.115602 
8.8833 6.9044 0.0770803 -0.0241442 
4.7228 14.3055 -0.0354892 0.0666208 
2.179 9.8545 0.174556 0.0345853 
9.3932 5.7441 0.00547048 -0.100464 
6.6254 8.7694 -0.00638576 0.194864 
11.5846 4.8652 -0.325779 -0.0535395 
2.195 0.6332 -0.171353 -0.0503518 
5.921 13.2587 -0.159652 0.224436 
1.5297 4.537 0.0973673 -0.0892683 
4.1729 8.4161 0.0999518 0.0576074 
2.8403 10.7347 -0.137296 0.0965545 
1.3657 14.022 0.0519187 0.153958 
5.6244 4.6196 0.0170912 0.172512 
9.5527 6.7713 -0.101054 -0.0155825 
4.9913 4.5332 -0.0800868 0.120775 
10.1015 3.7063 0.0424564 -0.0419915 
8.7284 2.4714 0.134979 -0.00787764 
0.5429 3.0946 0.131226 -0.0815211 
4.0394 0.5724 0.0582841 0.0757548 
12.8863 4.4875 0.0999324 -0.196221 
12.4956 11.9725 0.066239 0.306484 
8.1255 12.5866 -0.0437874 -0.0104621 
4.3382 5.5526 0.0329897 0.008779 
4.8456 6.2206 0.00978617 0.0867909 
10.6485 14.2403 0.0392478 -0.172583 
7.0306 11.3389 -0.247235 -0.0651751 
9.618 4.7457 0.149695 -0.17038 
0.6523 12.5764 -0.0193078 -0.16311 
6.8379 2.289 0.0612861 -0.137294 
8.1393 7.761 0.0203833 -0.000977805 
3.1599 10.6004 0.160873 -0.0721261 
8.3831 7.6279 -0.134321 -0.189736 
11.4327 4.692 -0.140845 0.253161 
1.8795 1.9829 0.0768355 -0.0205994 
12.5387 4.9071 0.0333755 -0.275674 
7.8432 5.2615 0.075337 0.102043 
2.621 14.2612 -0.123947 0.113311 
5.5931 12.8313 -0.0719626 0.123466 
10.505 11.4471 -0.110937 -0.0202406 
4.9589 13.391 0.01727 0.042823 
9.1854 11.849 -0.0980464 0.055029 
8.3182 10.2892 -0.00608887 -0.13671 
9.8523 9.4554 0.119071 -0.273473 
13.1603 4.4976 0.121393 0.160834 
11.8089 4.4199 -0.0872532 0.162259 
3.752 5.9118 0.0556818 0.0254411 
5.1508 0.5421 0.0480775 -0.028184 
4.2298 6.0926 0.102343 0.0724594 
5.1189 13.6091 0.120563 -0.0738203 
7.9035 9.3298 -0.169138 -0.0996442 
13.0264 13.1157 -0.046288 -0.0831402 
6.7919 7.4261 0.198584 0.00849545 
3.1687 7.3673 -0.0174618 -0.0348971 
4.6926 1.1568 -0.169927 -0.111393 
8.0767 6.5004 -0.137418 -0.00201204 
10.3241 11.0171 0.0101524 -0.267067 
7.0304 1.5245 0.00677393 0.0116874 
5.0552 5.3562 -0.129703 -0.0988056 
3.3558 7.163 0.231321 0.0580463 
13.1802 14.3781 -0.0407403 -0.0138853 
5.7379 6.2315 -0.103223 0.184037 
5.2076 7.589 -0.0384436 0.0228825 
13.2561 7.5534 -0.0219043 0.0640036 
3.301 6.292 0.277293 -0.0429269 
8.4053 1.4481 -0.02784 -0.183924 
11.0033 3.0098 -0.044113 -0.284618 
12.6301 3.4513 -0.104317 0.131053 
9.9887 8.8247 -0.104964 0.104942 
1.7897 12.8751 -0.0689483 -0.145119 
5.4198 9.7263 -0.00572874 0.0972166 
9.6897 9.1183 0.133094 0.01509 
2.9234 2.7139 -0.15929 -0.150413 
3.4074 3.2834 0.202976 -0.0450542 
6.461 0.6503 0.119114 -0.0355623 
10.4231 4.7945 0.18157 0.201909 
12.4451 7.2214 0.0398787 0.0540618 
0.8387 9.5071 -0.0761155 0.216029 
7.0193 6.762 -0.0708404 0.0215 
11.2859 7.7843 -0.301037 -0.201255 
11.8214 12.4484 -0.126339 -0.120064 
0.9614 5.3311 0.294754 0.0201595 
3.6089 3.1462 -0.00186914 0.103533 
11.3323 9.7895 0.194483 -0.0109094 
9.6584 13.7109 0.276784 -0.0996706 
4.247 8.0117 -0.0782621 -0.238878 
10.0772 14.1303 -0.0789303 0.160338 
8.5109 11.6239 0.0686503 0.186804 
12.8289 5.3757 -0.159378 0.186808 
11.5596 4.331 0.243952 0.0258999 
5.1597 2.8781 0.193448 -0.183858 
11.7006 5.4933 0.313306 0.0696346 
7.5191 3.1921 -0.0782797 -0.201009 
6.0782 4.3 -0.00992893 0.0482143 
9.4969 7.8876 -0.102382 -0.252769 
2.0579 10.6679 0.0947062 -0.131584 
0.6564 13.3942 -0.0634045 0.0683768 
13.688 3.2938 0.0137489 0.215086 
2.7931 13.265 -0.0644161 0.0680948 
6.1564 12.2236 0.0877682 -0.110133 
0.6604 8.1677 -0.0239338 -0.0164079 
6.6364 12.9399 0.101961 -0.176834 
12.8267 3.2064 -0.0875779 -0.0201444 
8.7113 11.6186 -0.137251 0.0344477 
6.935 14.6597 0.125216 0.163535 
13.8462 0.8195 -0.253479 -0.107224 
12.9877 8.492 -0.193292 0.0823837 
5.328 3.1372 -0.284217 0.0393875 
3.8477 6.7767 -0.102623 -0.283225 
11.9616 2.8933 0.0818177 -0.05032 
2.0063 7.4528 0.0926663 0.0185235 
5.5427 14.1176 0.124183 -0.160134 
11.2567 7.0554 0.282188 0.0220702 
0.7489 4.4274 -0.0304726 0.165034 
7.5463 8.6035 0.0259832 -0.0879025 
10.5677 11.6531 0.239077 0.249187 
2.6046 10.5198 0.228544 -0.03316 
10.3147 3.9991 -0.0622303 0.165844 
13.3919 7.1205 -0.34774 0.161373 
1.6019 9.0414 0.0178657 -0.0207985 
6.7176 13.9168 -0.0273952 0.0045125 
10.2959 9.4978 -0.0604745 0.234053 
3.0787 2.016 0.275468 0.035667 
0.9694 14.5324 0.189061 -0.181072 
6.1178 2.5979 0.104406 0.0748854 
5.9709 9.2738 -0.0629887 0.222964 
7.5805 8.8724 0.0922778 -0.107233 
12.5996 10.9441 0.287851 0.0899405 
5.2673 2.0084 0.0246255 -0.0229676 
7.5226 10.6436 -0.179877 -0.0205348 
12.9875 1.7705 0.21115 0.115217 
5.3835 0.5883 -0.0308304 -0.113804 
1.0578 12.7409 0.18086 -0.116408 
5.188 8.5295 0.122266 0.190991 
2.8226 4.2515 0.135852 -0.126416 
9.9634 4.2097 0.0485331 0.0135503 
9.6554 4.4955 0.0178917 -0.0555875 
7.9249 13.029 -0.052862 -0.191737 
6.6493 9.1434 0.191208 0.0585073 
5.9713 8.7366 0.0173073 0.0845026 
4.0142 13.6753 -0.170948 0.115474 
8.443 13.1435 -0.0168392 -0.10415 
3.4727 14.4048 0.00454588 0.0610672 
12.1621 14.3088 0.0479336 0.0797276 
8.7138 12.1725 -0.184347 0.110769 
1.2186 2.2708 0.0538108 -0.322798 
13.8698 8.2342 -0.0110842 -0.117011 
6.427 7.1194 -0.150585 -0.0190656 
8.2686 14.6191 0.0181903 -0.00341634 
1.0262 2.381 -0.0552643 0.121146 
5.6621 2.5752 0.232299 0.0582956 
6.5606 13.6121 0.0852019 -0.0288769 
1.6282 13.9792 0.0119724 0.205277 
10.3064 1.1377 -0.0669897 0.0790532 
12.8897 11.3726 0.019828 -0.000345008 
9.2404 14.7828 0.037019 -0.158638 
2.4933 2.9932 0.217519 0.27839 
6.9378 13.9184 0.0532429 0.00657701 
3.5005 12.4544 -0.115501 -0.00942018 
3.0711 3.5876 -0.119774 -0.173526 
2.3188 11.195 0.124875 -0.0440736 
4.3754 2.1942 -0.0442642 -0.0334557 
10.954 0.6085 0.0672172 -0.163122 
10.4883 9.8441 -0.0292089 0.147073 
3.3521 0.776 -0.0578556 0.0423405 
4.6237 9.3579 0.122608 0.0775992 
7.0655 7.775 0.164468 -0.155064 
2.0522 13.2853 -0.18615 -0.156091 
12.9884 8.1077 -0.23973 0.139405 
9.4084 11.8878 -0.16974 -0.0663683 
10.2684 11.6108 -0.0747605 -0.272461 
2.0543 14.6299 -0.0542561 0.011143 
6.1079 14.1779 0.0851343 -0.0481675 
1.45 3.779 -0.0242059 -0.316566 
7.0046 12.6142 -0.101425 0.048109 
5.832 8.4326 -0.072771 0.062514 
8.7232 0.5587 -0.0686403 -0.159551 
3.0594 14.6615 0.075091 0.177267 
1.6187 12.3073 -0.0470151 0.0249163 
12.7663 14.1055 -0.00540463 0.155122 
11.0482 9.306 -0.00892702 -0.220319 
6.5099 10.172 -0.069116 0.0396749 
0.7027 1.5084 0.234241 0.0567717 
9.4906 5.2754 0.181089 0.0281846 
8.2137 10.0069 -0.250415 0.238155 
5.9355 1.609 0.129248 0.0514003 
2.588 9.5389 0.119341 -0.147287 
13.3048 13.4317 -0.116222 -0.0967826 
9.3781 10.9647 0.364249 -0.00531919 
2.2714 9.3736 -0.0291169 -0.108127 
4.2469 9.7903 -0.0167594 0.107659 
9.0655 7.8578 0.181123 -0.0955514 
4.9144 5.0753 -0.363241 0.18078 
6.6881 1.1448 0.289633 -0.103054 
13.7384 3.7744 -0.178789 -0.0866651 
4.113 4.2771 -0.0148172 0.102036 
10.2457 2.6418 0.0197737 0.180693 
13.6479 1.2189 0.0773118 0.0405698 
1.538 7.4388 -0.00423057 -0.125061 
11.4893 13.1417 -0.251731 0.054837 
2.3644 13.1636 -0.116 0.0917759 
12.9099 12.3155 0.146481 0.0892214 
2.7718 2.1438 0.0172587 0.137466 
7.0424 6.0567 -0.185519 -0.120987 
3.359 7.9401 0.06148 -0.160795 
6.0872 3.1653 -0.027318 0.0179803 
8.4064 5.7052 0.0743117 -0.100918 
4.2761 5.1967 -0.120402 -0.0112187 
6.9883 14.1553 0.193665 0.0507935 
6.432 4.0578 0.131257 0.122507 
4.3492 3.9092 -0.196848 0.101947 
9.198 0.8399 0.123956 0.150024 
3.6873 6.6381 -0.171053 0.122323 
10.8818 0.9548 0.119852 -0.0805679 
10.9715 8.9115 -0.0704471 -0.0240506 
9.6302 10.4618 -0.194491 0.105259 
5.0964 2.5056 -0.176122 -0.0870668 
6.2652 5.3154 0.27803 0.0905981 
3.8294 10.5563 0.0346342 0.0216971 
10.6457 2.7674 -0.0141153 0.123531 
10.3077 6.8556 0.0254691 -0.184713 
11.8812 12.1326 -0.292975 -0.0646256 
1.6149 4.0735 0.00763758 0.0201604 
8.739 3.0802 -0.00445096 0.198242 
1.9822 12.0282 -0.270114 -0.0479711 
4.1477 1.685 -0.0144998 0.025388 
5.9994 7.3981 0.0696897 0.0131404 
7.8319 10.6512 -0.063329 -0.0694453 
6.8688 4.1512 -0.253749 0.115245 
10.7764 9.6872 0.0824914 0.080613 
10.4299 12.4385 -0.0426389 -0.0791906 
10.0877 13.0672 -0.0834392 0.0232222 
6.4693 4.7222 0.0822944 0.03644 
0.9348 4.2808 -0.11111 -0.289144 
5.5337 0.923 -0.0759112 -0.0726424 
11.0323 4.2457 0.028049 0.383301 
2.8161 5.1683 -0.212005 -0.266434 
1.6591 10.9187 0.0706112 -0.0204867 
3.9546 13.0882 -0.129679 -0.212854 
9.5854 8.1631 -0.0577786 0.238038 
8.6313 10.2115 0.230635 -0.115545 
7.3321 8.1776 0.0880329 0.0647329 
6.1839 7.5728 -0.00564148 -0.256425 
4.0437 5.0039 0.193757 -0.0845981 
10.6592 5.438 0.0717347 -0.374206 
6.8794 10.4668 -0.0312313 -0.0305341 
8.6072 6.5667 0.128476 -0.166629 
8.2118 11.6379 0.156569 0.0546635 
9.0203 8.8024 -0.205365 -0.00434404 
10.6881 8.551 -0.0770698 0.033798 
13.4866 8.8074 0.0200684 0.12038 
1.7188 3.1712 0.0310694 0.156995 
4.1108 11.0365 0.317638 0.0270236 
10.9272 13.4421 -0.0886649 -0.31696 
5.8683 10.4419 0.0125602 0.590978 
7.3109 2.5567 -0.0663405 -0.0419319 
6.7999 9.963 -0.0317021 -0.0873934 
2.2637 14.1867 0.126911 0.239955 
3.6617 11.4054 0.0309821 0.312851 
8.2753 11.1579 0.0271374 0.00482146 
5.9216 12.9523 0.176595 0.110201 
11.8687 13.8394 -0.141052 0.00266296 
7.0797 5.566 0.462615 0.175903 
5.4838 1.7847 -0.0269752 0.0194172 
1.0233 3.523 -0.0136782 -0.00597239 
0.7945 14.1251 -0.0370776 -0.163479 
12.4405 7.7114 -0.0784983 -0.0493997 
9.6197 11.7411 0.0580477 -0.252724 
2.2939 6.7652 -0.257226 -0.0569019 
11.7462 14.0836 -0.00993482 0.144908 
1.5834 9.8706 0.00753436 -0.0467883 
9.4912 2.9272 -0.017911 0.1504 
2.8757 6.301 0.073252 0.00760503 
8.1245 5.939 -0.130513 -0.269079 
11.8143 12.758 0.164851 0.00477639 
4.0476 1.0857 -0.037023 -0.188572 
4.5649 8.7632 -0.0822719 0.193216 
11.3103 4.2392 0.102729 0.0863582 
0.5812 0.7327 -0.0123889 0.105105 
4.1685 12.4696 -0.0891181 0.0977245 
6.026 13.838 -0.194323 0.116201 
10.5072 0.9676 0.406539 -0.0105615 
11.4451 12.9328 0.0444092 0.0440469 
5.0225 4.2241 0.155616 -0.148334 
13.5081 4.3073 0.289785 0.161988 
0.7983 2.2389 -0.0399475 0.152949 
13.8688 10.1612 0.0223073 -0.0539653 
3.3454 9.7268 0.272267 -0.103879 
3.1675 9.4813 0.0226255 -0.0511474 
7.7361 1.8839 0.285814 0.113767 
4.9667 10.2649 -0.112035 0.160548 
6.2063 3.9403 0.0876551 0.229103 
9.995 11.1808 -0.0936665 -0.0198466 
9.494 3.1601 0.115189 -0.146024 
2.635 7.1024 0.0712588 0.066934 
12.463 5.1129 0.00726806 0.116549 
8.4979 13.6022 0.121856 -0.214188 
10.6861 10.7283 0.205263 -0.0273158 
5.2189 10.1384 0.105714 -0.201634 
10.7133 11.8563 -0.140183 0.0847746 
1.7842 9.1268 0.0148454 0.0397059 
4.8 11.9626 0.103691 -0.106778 
10.4729 9.3555 -0.0305166 0.137214 
12.6605 8.0664 -0.147898 -0.0186249 
7.8752 7.6081 0.135469 -0.0366301 
12.9493 9.073 -0.209608 -0.0267953 
1.0701 9.4766 0.1431 0.0180872 
13.4003 6.3216 0.00661169 -0.136055 
13.193 13.6741 0.12302 0.150964 
5.3554 2.5863 -0.132289 -0.110249 
10.3472 14.3486 -0.219964 0.00264234 
5.6551 4.227 0.0255624 -0.20687 
6.4074 12.2715 0.0910952 0.226762 
9.3199 5.3994 0.0921389 -0.171576 
1.9955 2.2717 -0.264998 0.137923 
3.5341 1.4332 0.206011 -0.0903209 
3.2148 5.9791 0.0380942 0.0375148 
8.6511 3.3374 -0.00491809 -0.0673705 
6.9691 10.1821 0.354752 -0.0993498 
7.0781 5.1022 -0.0795866 -0.0917049 
12.0298 9.9546 0.0353892 -0.0875126 
1.1856 5.1579 0.122569 0.030207 
4.1388 2.6956 -0.17975 0.0551559 
1.9003 11.4808 0.0634632 -0.183045 
10.7895 6.4744 -0.159024 -0.115147 
2.6455 14.5132 0.0936251 0.0163999 
9.7594 8.5234 0.187742 0.0479243 
6.5903 7.5463 0.0290661 0.233538 
13.5299 2.4421 0.102465 -0.0752028 
1.2537 3.8732 -0.0367053 0.0669943 
1.6253 6.8811 0.0794787 -0.0225164 
10.7005 12.371 -0.0214642 -0.192005 
5.9185 0.5319 0.131766 -0.011466 
12.9354 12.8715 0.019288 -0.0238472 
5.0732 6.4247 0.0592047 -0.0553044 
2.8776 7.6896 -0.174543 0.00504048 
9.9683 2.0994 0.032635 0.249784 
1.2597 11.2884 -0.00216852 0.311922 
0.8077 5.8692 0.110588 -0.0856713 
13.905 2.1313 0.163292 0.0614214 
8.9082 6.1138 -0.00630329 -0.0635216 
2.1006 12.197 -0.307674 -0.19503 
7.4261 10.0468 -0.151794 -0.134555 
3.4618 1.8913 -0.290871 0.0599762 
7.6666 1.2091 -0.0985592 0.0188975 
13.1256 12.1256 0.118517 0.133344 
9.428 8.6706 0.208885 -0.0869699 
4.6783 10.8777 0.262675 0.0522564 
7.3034 10.2612 -0.150244 -0.159483 
6.6128 3.4161 0.0299992 0.0340531 
1.3105 1.2772 0.207793 -0.041844 
9.2031 1.5702 -0.230131 -0.180346 
9.3546 2.466 -0.188172 0.308314 
13.2923 3.9737 0.0262184 0.145364 
7.1364 3.0967 0.125454 -0.0412057 
6.5609 2.1096 0.0939136 -0.0277411 
5.9383 11.3679 0.282282 0.016071 
5.0229 12.5127 0.0419115 0.228121 
10.0671 9.8997 -0.133503 0.134452 
8.6698 6.9258 -0.076578 -0.107556 
5.7904 14.7271 -0.0697871 0.0215862 
11.7043 14.4499 -0.116861 0.110304 
10.6666 7.0116 -0.157261 -0.0598046 
7.8537 8.8909 -0.303193 -0.0402948 
8.6733 5.9303 0.174387 0.0780916 
3.3793 7.6167 -0.00391495 0.0135657 
2.5039 2.3569 -0.181146 -0.0321433 
12.3026 5.7179 0.0385952 -0.0608146 
11.9716 9.4272 0.0815009 0.0540058 
8.1623 5.3893 0.012408 0.0277421 
5.6752 9.3507 -0.0571301 0.259249 
8.0463 9.1394 0.0803049 0.142243 
7.1117 7.4197 0.0394196 -0.19784 
10.8976 10.9412 -0.0854009 0.251904 
9.57 1.7937 -0.0231656 0.0117205 
9.2924 5.9317 -0.110776 0.0336442 
10.7372 4.846 -0.0626469 -0.104607 
2.7832 10.3751 -0.280217 -0.0472312 
0.5885 12.3845 -0.0200741 -0.253404 
2.765 9.2882 0.131384 0.0493796 
1.928 11.7545 -0.028383 0.122058 
4.4834 2.7758 -0.222174 -0.131549 
10.754 14.0395 0.100843 -0.176233 
7.587 2.6023 -0.0717948 -0.199312 
10.1538 5.2909 -0.0340327 0.173039 
13.2615 3.289 -0.0142859 0.0502113 
4.8235 9.6419 -0.0458212 -0.0614829 
13.9 1.9091 -0.207954 -0.0147444 
11.1954 1.5545 -0.149794 -0.129779 
6.0881 9.1071 0.0111879 -0.0859136 
7.053 10.8112 0.0428362 0.0544399 
8.2375 4.8168 0.178493 -0.0230091 
0.5714 13.6126 -0.201754 0.202009 
5.7869 4.7402 -0.155864 0.147772 
12.5721 4.491 0.122868 -0.1339 
13.9984 4.6898 0.266444 -0.0833313 
7.2847 3.8607 0.15716 -0.0601536 
1.7524 8.5816 -0.11269 -0.0401143 
3.5929 7.9653 0.0790436 -0.0748545 
4.94 14.4176 0.0962914 0.00173549 
2.935 4.8898 0.0492923 -0.0162259 
4.4038 10.7682 0.259989 -0.192359 
12.0597 10.749 -0.206599 0.0434251 
8.9787 5.3733 0.0386601 -0.00666567 
13.1157 7.364 -0.00700271 -0.0476301 
12.1815 8.207 0.0273519 0.128653 
1.5564 12.9735 -0.129826 -0.0298617 
8.1297 0.6331 -0.0832138 -0.130549 
2.6314 6.3939 0.156061 0.0690728 
5.8647 13.7013 -0.080406 0.0623213 
0.8331 2.9073 -0.0100802 0.034405 
13.4041 8.5527 -0.0431159 -0.101991 
7.3905 13.8224 -0.0284791 -0.0450107 
9.4329 0.5255 0.179483 -0.119196 
9.7609 14.1368 0.106531 0.0434348 
6.3289 1.2201 -0.00243896 -0.0237775 
3.0276 9.6663 -0.00910086 -0.0374937 
0.9624 13.645 -0.0818006 -0.0797867 
3.0877 9.1432 0.170431 0.0658352 
8.9824 9.9697 0.197068 0.0850039 
6.0748 1.8115 -0.00330637 0.0690965 
10.5215 8.2102 -0.187373 -0.00792493 
3.7872 13.2003 0.0379574 -0.0698633 
12.5066 3.2659 0.239077 -0.0757157 
5.4293 3.9584 -0.191969 -0.0318404 
13.9487 12.1801 0.0659263 -0.0820335 
5.0734 11.0283 0.066466 -0.0475603 
4.1745 11.3029 -0.0451239 0.0576944 
11.2003 6.661 0.0302224 -0.0197503 
0.6369 4.7867 -0.0169879 -0.224236 
6.8115 12.386 -0.0546915 -0.165602 
5.2433 5.2548 -0.0442516 0.10962 
7.7819 11.1167 -0.108 0.0250649 
2.8891 13.7463 0.0578619 -0.0261759 
4.4423 4.9545 0.224957 0.220529 
5.918 5.0795 0.0691748 -0.00702309 
5.0117 14.7297 0.0706966 0.310397 
3.0379 2.2554 -0.12355 -0.00487135 
8.9089 11.8158 -0.0355078 0.212152 
8.8308 13.1798 0.295022 -0.0293178 
4.4322 11.3771 0.0733616 -0.0933237 
6.2947 14.3703 0.00860745 -0.177 
12.0672 2.389 -0.122217 -0.183977 
8.431 7.9188 0.0568254 0.0310539 
1.1515 13.869 0.137704 -0.319055 
5.0494 13.1021 -0.38247 0.035889 
12.998 10.2699 0.0871791 0.282073 
5.816 3.3654 -0.0625941 -0.134254 
17.0767 8.4736 0.0871314 -0.122917 
22.2998 2.4795 0.128671 -0.115115 
17.133 12.1335 -0.0353925 -0.244398 
16.2686 3.6414 0.16964 0.115644 
15.405 6.8379 -0.121797 -0.122146 
21.7111 3.9823 -0.0191134 0.0504142 
26.4815 14.3064 0.00608792 -0.00596354 
24.1615 6.3532 -0.0218744 0.00619644 
17.2915 1.2844 -0.0356357 -0.0254608 
18.2906 7.6389 -0.0935451 0.135941 
23.4672 3.4127 -0.0135089 0.043726 
23.4726 5.1629 -0.0549183 -0.044591 
14.805 0.9205 -0.203933 -0.328278 
25.4382 8.116 0.142215 0.0558909 
14.691 12.3077 0.0209955 0.0199972 
24.7576 7.125 0.00478688 0.0198186 
24.5938 12.5434 0.0375584 -0.128579 
19.9061 6.1565 -0.0313966 0.177391 
17.1876 9.1549 0.0449207 0.12284 
19.9103 12.8066 -0.215874 -0.0929975 
23.7068 1.4968 0.104864 0.0855916 