ITEM: TIMESTEP
0
ITEM: NUMBER OF ATOMS
2520
ITEM: BOX BOUNDS pp pp pp
0.0000000000000000e+00 2.8000000000000000e+01
0.0000000000000000e+00 1.5000000000000000e+01
-1.0000000000000000e+00 1.0000000000000000e+00
ITEM: ATOMS x y vx vy 
2.4074 4.9914 0.231845 0.0299394 
13.1372 11.107 -0.141683 -0.0534015 
5.1076 13.9364 0.0253521 -0.101603 
4.0632 9.553 -0.0503921 -0.138537 
10.9351 5.9821 -0.114038 -0.230415 
9.0984 9.1487 -0.00312981 0.337946 
10.6703 9.4464 -0.0111581 0.0253241 
8.6254 4.0221 0.137272 -0.00723508 
8.3205 12.6921 -0.29758 -0.0201258 
8.5146 14.0849 0.216534 0.143251 
9.9971 13.8619 -0.0823179 -0.19395 
13.8004 14.6373 -0.0966989 -0.259642 
11.7887 11.3501 0.160901 -0.0491466 
12.1109 4.5699 0.0121199 -0.0915465 
4.4258 9.2339 -0.0228835 0.342146 
11.33 13.5139 -0.0832838 -0.0458268 
3.3962 1.1558 0.0758997 -0.0120372 
9.3857 6.195 -0.0999 -0.138514 
6.8295 5.0231 -0.171246 -0.113837 
6.8067 5.9371 -0.0457149 -0.0166498 
3.461 1.6167 0.012277 0.0428353 
7.849 4.16 -0.00620133 -0.162334 
2.4185 2.3951 0.0270098 -0.0577753 
8.3492 9.5838 -0.0956447 0.146071 
9.2929 4.9102 0.00672637 -0.188193 
9.2272 13.8623 0.129835 0.0394156 
2.3755 10.2723 0.039129 0.153745 
3.4524 5.5067 0.073114 -0.0136016 
6.1347 1.8658 0.0291966 0.216804 
11.7313 2.0359 0.131968 0.0918367 
11.8798 3.9682 0.020849 -0.0483064 
2.1377 2.863 0.027075 0.0500281 
8.4928 13.255 -0.0727029 -0.020176 
13.1572 14.0659 -0.044329 0.334533 
8.473 5.5974 0.101384 -0.142776 
12.8334 1.5372 0.189137 0.0417054 
10.7081 4.6034 -0.154376 0.102531 
4.1615 5.0581 0.0509447 0.022682 
10.1199 8.3568 -0.169563 0.12806 
11.6798 8.7083 0.122496 -0.0576992 
12.3492 11.8001 0.180401 0.142288 
4.5466 12.0056 0.0485564 0.117488 
10.8955 6.2352 -0.0590349 0.167438 
9.9484 10.2946 0.0359915 0.0440747 
13.0779 10.8176 -0.0488094 0.114808 
8.7667 3.3624 -0.0222085 -0.0657817 
12.0775 2.2313 0.0122301 0.157766 
1.2085 0.9999 -0.131223 -0.211607 
4.6902 13.2544 0.197145 -0.155659 
4.4964 7.0062 0.123817 -0.0503444 
2.2525 3.6927 -0.101206 0.166376 
9.4537 4.1269 0.0956806 0.178778 
3.9049 11.146 -0.168217 -0.0843672 
11.2879 13.9297 0.133745 0.0533486 
2.847 14.0882 -0.255752 0.17055 
3.1736 1.444 -0.104501 0.0917294 
2.6588 3.0672 -0.0084515 0.0476819 
2.6023 6.0888 0.271626 -0.060997 
13.0492 4.0536 0.154649 -0.111027 
4.3583 5.5573 -0.155577 -0.0348666 
3.0309 4.754 0.0214634 -0.0796779 
6.5214 1.3268 0.0720817 -0.0129961 
5.2486 11.2133 -0.0919482 0.10652 
12.7286 3.5562 -0.077235 0.0481409 
11.0738 14.3249 -0.0356052 0.0189316 
8.4938 1.1309 -0.324775 -0.211489 
2.6575 2.2816 -0.120749 0.0448128 
1.0411 2.226 -0.133384 0.0252701 
3.1379 9.8929 0.132433 0.352626 
1.8925 7.5088 0.0750657 -0.119145 
3.4643 12.1354 -0.164596 0.136071 
1.2224 1.672 0.0983723 0.0691003 
3.3322 5.9066 -0.188385 0.0129779 
3.6511 11.5869 0.00290427 0.355455 
7.2912 5.5914 -0.151835 0.101612 
7.6295 9.2265 -0.144402 0.105047 
7.0694 8.6367 0.118084 0.150544 
3.3804 1.8038 -0.271086 0.097265 
1.6263 7.3591 0.126292 0.0535899 
7.3751 8.3606 0.280028 0.0935033 
5.322 4.7053 0.0211767 0.207534 
6.6949 10.1287 -0.0715832 0.0377659 
10.2039 4.9689 0.0756324 0.00604844 
13.5819 3.9811 0.0629859 0.111154 
5.9335 8.1155 -0.0243949 0.0723076 
13.6357 6.1198 -0.205452 0.131005 
1.9124 8.7085 -0.240138 0.095774 
10.1916 14.4112 0.0998781 0.155289 
6.7999 7.4591 -0.03452 -0.106403 
6.7036 5.2042 -0.0419466 -0.257445 
13.6784 8.492 -0.102426 0.00894892 
2.1538 14.2986 -0.131931 -0.133141 
4.9946 7.5275 -0.183427 0.166297 
8.9265 13.0557 0.0874083 -0.044851 
12.9822 9.7682 -0.0728712 -0.23731 
10.2209 11.7477 0.180939 -0.0575017 
11.8768 10.1075 0.016302 0.0429785 
0.6367 10.2226 0.258565 -0.139816 
0.9962 0.747 -0.185695 -0.0471903 
8.6808 0.9145 -0.159353 -0.043081 
6.971 2.7145 0.32679 0.238653 
2.6772 12.6326 0.237699 0.344906 
12.0758 13.1087 0.160553 -0.161623 
13.4576 0.6951 0.0621551 0.302334 
4.0484 0.9545 -0.149789 -0.160971 
11.6711 5.6309 0.125861 0.223153 
1.3556 8.7066 0.0805434 0.0847134 
2.7517 10.4745 0.204755 0.150186 
13.5574 4.275 -0.0773901 -0.172983 
8.8372 9.0524 0.271233 -0.0563042 
2.8016 6.442 -0.0417337 0.144847 
13.3355 5.0822 -0.137387 0.0589807 
1.0272 10.6808 0.137724 -0.214372 
8.1419 12.2686 0.217866 0.17615 
11.2462 4.0201 -0.00858102 -0.0570443 
4.6929 12.5351 -0.0377082 0.125764 
12.8884 14.6238 -0.187484 -0.040315 
10.786 2.1357 0.0307277 0.0686471 
4.2356 13.6288 0.0156958 -0.214675 
12.2834 1.1322 -0.344786 0.333582 
4.4055 9.6029 -0.0670199 -0.240241 
6.7463 9.1877 -0.164932 0.123907 
10.9144 3.0861 -0.0545896 -0.0425504 
1.5939 10.3349 -0.0575626 -0.025594 
1.0783 5.9842 -0.182436 -0.0278254 
3.7431 10.7874 0.302263 -0.173886 
1.8107 3.1089 0.0333231 -0.0350226 
2.3416 0.5889 -0.0270004 0.174587 
3.4391 13.4758 -0.00752764 -0.074444 
12.1448 11.8007 0.317283 -0.189843 
4.1053 3.8751 0.110107 -0.226769 
1.0145 6.8685 0.0255125 -0.0498612 
13.7133 7.1943 -0.1124 0.113614 
3.4864 4.8678 0.0529415 -0.0963364 
2.6193 7.7456 0.019007 -0.0996135 
9.4256 12.6105 0.115527 -0.00286739 
4.3229 10.377 -0.0827292 -0.0202502 
7.0444 0.6987 -0.0952557 0.104957 
4.3094 1.4152 -0.256911 -0.0693442 
10.4665 13.0148 0.00256807 0.0384473 
8.2531 3.1808 0.329621 0.0933472 
10.5649 11.8006 -0.0841883 0.114687 
3.9248 14.6113 -0.0584163 0.00415192 
3.0248 6.6427 0.0890076 -0.165988 
0.8045 13.9392 0.0145117 0.143681 
4.7071 10.3593 -0.0551555 -0.00150324 
10.5161 12.5137 -0.00527436 0.0575833 
8.2996 11.4659 0.260589 -0.0174787 
7.6963 9.6319 -0.137078 -0.0771509 
9.9004 9.4701 -0.0342756 -0.303776 
9.263 7.264 -0.0622768 -0.114254 
4.3459 10.8828 -0.0181461 0.14678 
12.469 1.7516 -0.134726 -0.168562 
6.0662 3.4085 -0.000744372 0.0151264 
9.8012 12.494 -0.0065701 -0.258344 
4.1909 4.8527 -0.0930009 -0.00597372 
4.8265 2.7471 -0.219507 0.0468555 
9.0088 13.7408 0.0601784 -0.252751 
2.4394 0.7999 -0.155884 0.139114 
11.9921 0.7895 -0.221034 0.2388 
1.1372 0.5834 -0.158933 -0.0207236 
12.0242 10.3938 -0.00908047 -0.00805924 
2.6398 4.6004 -0.0185969 0.0899703 
2.8785 14.5758 -0.0301774 -0.0628201 
9.8557 5.1407 -0.0747295 0.0260621 
7.0386 3.2836 0.0633689 0.29175 
4.4146 8.9968 0.00210428 -0.215733 
13.983 13.2709 0.0616492 0.0584349 
4.7726 4.6623 0.164368 0.214065 
6.1337 9.0663 -0.028885 0.0683799 
9.4856 8.3624 -0.00224343 -0.0147404 
9.9914 9.0678 0.32592 -0.138829 
9.6531 12.927 -0.169316 0.0258347 
6.0836 12.0742 0.126687 -0.136099 
1.7063 3.4088 -0.0418918 0.0915746 
5.8681 12.6352 0.0499738 0.00155863 
8.4999 6.1568 -0.0317568 0.0319291 
5.9189 13.6421 -0.233535 -0.0826333 
2.6131 14.4222 -0.0713568 0.278061 
1.3398 11.7153 -0.265151 -0.140335 
13.227 8.2218 -0.230521 -0.136657 
7.9375 5.5014 0.112326 0.104691 
9.3508 2.305 -0.208991 0.0885999 
2.2741 11.3865 0.00705208 -0.119198 
11.7738 10.5312 -0.0501782 -0.136629 
4.3536 12.2408 -0.250601 -0.191026 
10.2064 9.0459 0.563676 -0.0830958 
8.2609 10.4842 0.0190739 -0.0382127 
4.1933 9.8135 0.142288 0.0587935 
3.443 11.7727 0.0132943 0.293655 
11.8405 12.3091 0.0723424 0.120638 
9.2753 8.2721 0.138631 0.0669604 
6.2871 7.8857 -0.0776797 -0.0771805 
7.4791 2.2201 0.010327 -0.155052 
5.5227 10.237 -0.00238121 0.00999727 
10.647 2.2992 0.179926 -0.000551971 
13.8027 1.4913 0.0548244 0.042314 
1.2213 5.3962 -0.255194 0.303902 
7.2508 4.7126 -0.190229 0.07791 
12.734 13.4921 0.160503 0.0327981 
2.2211 7.7854 0.0361658 0.0747143 
13.8133 0.5751 -0.0892736 -0.0480878 
9.9397 8.2023 0.0328237 0.0741772 
7.5222 1.0024 0.00770214 -0.0456891 
4.2552 4.1813 -0.0921131 0.0741583 
9.0403 8.0728 0.155372 -0.0914552 
6.3363 9.6379 -0.0436051 -0.0692412 
0.6817 13.0936 -0.00439885 0.0451744 
13.5431 9.4756 -0.191315 -0.00500786 
2.7867 8.9787 -0.120336 -0.0143937 
1.3299 13.1776 0.0444196 0.221391 
7.6618 5.1984 -0.0923702 -0.128281 
8.6625 11.1226 -0.0639144 -0.237888 
5.7437 1.047 -0.146212 -0.0455053 
0.9826 1.6363 -0.0817966 0.143194 
6.376 6.0755 -0.156161 0.0409945 
1.285 3.0779 -0.00515629 -0.0364617 
3.8056 2.0569 -0.081565 0.113782 
2.1922 14.7875 -0.125646 0.0416107 
11.9074 6.8447 -0.0258034 0.194164 
10.784 4.0333 -0.060653 -0.0132561 
7.7806 8.2996 -0.155225 -0.116941 
5.6411 10.614 0.00433871 -0.0133128 
2.6029 12.9925 -0.0853078 -0.039917 
3.3579 4.136 -0.0724131 0.209175 
5.149 6.2239 0.0220014 0.175807 
3.669 12.7855 -0.235623 -0.050809 
7.8319 0.8489 -0.102507 0.186908 
13.8817 12.0101 -0.026168 -0.0425879 
1.0631 13.5702 0.0209872 -0.000957249 
0.9872 5.7637 0.0221477 -0.165666 
4.3496 6.509 0.0773536 0.0324234 
10.1478 0.7625 0.0164921 -0.11451 
11.49 7.6133 0.205129 0.0419643 
4.723 0.5289 0.121508 0.120938 
0.7092 7.5456 0.0447417 -0.248691 
5.1424 13.4574 0.291235 -0.306183 
11.3179 11.6422 -0.313118 -0.137834 
11.9651 12.5924 0.0594026 0.0525716 
2.8416 10.2289 -0.0802644 0.0336802 
13.6672 5.3581 -0.0861624 0.00834312 
11.8259 2.2575 0.150777 0.249898 
11.13 10.5483 -0.0963834 0.117123 
1.2204 2.6843 -0.132963 -0.000889251 
1.5398 9.5176 -0.229304 -0.147694 
7.3842 5.7702 -0.0239285 0.182507 
10.7593 2.7434 0.102056 -0.00988137 
7.4672 14.4452 0.296711 0.137939 
2.0531 11.4307 -0.00827903 0.110892 
4.6121 0.8004 -0.0889109 -0.0263155 
10.3246 4.2067 0.0612167 -0.0695517 
6.6326 4.5421 0.147624 0.019789 
10.3615 10.9993 -0.12896 -0.102332 
3.6155 4.2263 0.329174 0.0551506 
5.2197 12.768 -0.126951 0.0886816 
7.205 7.7542 -0.179355 0.188305 
2.3233 4.627 -0.137847 0.0791818 
3.0155 2.9625 -0.177983 -0.123568 
6.4729 4.1864 -0.0783354 0.333936 
9.9177 9.6904 0.0867452 -0.0513892 
8.2146 11.0967 -0.079381 -0.0425688 
1.8933 6.8066 -0.0450144 0.1676 
3.0147 4.2695 0.16411 -0.190134 
6.2902 8.1865 -0.06326 0.238279 
5.8785 2.6707 -0.15476 -0.222034 
1.9105 9.6163 -0.00468412 -0.192639 
5.4911 12.0623 0.1229 0.172686 
11.0502 4.0891 0.100495 -0.0819852 
9.5984 3.0814 -0.0435349 -0.114378 
5.6548 13.5101 -0.0312115 -0.117554 
7.7909 14.4175 -0.0305259 0.0648835 
3.1314 2.529 0.0590699 -0.0115434 
4.54 2.7253 -0.150722 -0.319778 
6.0834 1.0241 0.0919368 -0.0715614 
1.7807 14.0209 0.129977 0.061309 
7.5241 12.3171 -0.25061 -0.0434337 
10.2732 9.7511 -0.200683 0.0166871 
7.0648 9.1998 -0.290642 -0.00979348 
12.7634 8.2158 -0.0614717 -0.0723646 
13.7058 10.589 0.153083 0.104981 
2.7826 5.9229 -0.0302158 0.148445 
9.2251 6.9838 -0.0767468 -0.0979433 
4.102 2.9118 0.227501 -0.0957014 
0.8984 9.4519 0.0778809 -0.168351 
9.3604 12.8984 -0.0423187 0.0289363 
11.2857 10.3382 -0.0273191 -0.0301361 
4.1373 14.6863 -0.144175 -0.27342 
12.1587 14.1275 0.135159 0.248231 
1.9342 8.2119 0.1137 -0.0112096 
5.8803 7.4608 -0.0231538 -0.242399 
3.6587 0.7762 0.131327 -0.154388 
9.4434 1.5755 -0.0565456 -0.242506 
13.6144 13.6042 0.0185463 0.140315 
10.5485 7.7121 -0.19214 -0.105691 
8.1891 4.3827 -0.056571 -0.217156 
1.8429 14.3586 -0.0106755 0.109181 
8.3369 11.8124 0.242492 -0.31661 
5.1609 10.8135 -0.0508561 0.085503 
7.7605 12.7436 0.1758 0.0617149 
4.6799 1.5913 0.201921 -0.0929222 
8.4273 13.5162 0.0912237 -0.117505 
5.2563 3.0672 0.00309242 0.0633578 
4.5745 14.2949 0.165637 -0.0324399 
10.0589 0.5092 0.0120362 0.0394807 
3.4013 3.1994 0.0239296 -0.0238202 
12.9244 7.6696 -0.0759529 0.19432 
7.7023 5.5978 0.340436 0.0650085 
9.6117 0.841 0.0737138 0.172454 
6.2107 12.6371 -0.256543 0.37225 
13.824 12.5068 0.159543 0.0765485 
0.6646 12.0115 -0.0659827 0.105178 
11.5574 11.8042 0.0197308 -0.0695005 
13.6261 7.403 0.0712102 0.224047 
5.3276 4.1132 0.0793732 0.217699 
6.4418 10.8683 -0.0394025 0.164528 
3.4843 2.5903 0.0517093 0.0993415 
12.1798 7.3992 0.361915 -0.0879531 
8.4946 9.8168 0.148402 0.256551 
1.1017 6.4455 -0.126634 0.138642 
10.4432 10.0542 -0.073118 -0.0220035 
5.0929 12.5443 0.193788 0.048325 
2.2902 9.7182 -0.0762493 -0.0118304 
13.9476 8.2449 0.102514 -0.108575 
6.7214 12.7639 -0.133024 -0.115739 
13.9704 14.4143 -0.10124 -0.238049 
10.5966 1.2793 -0.17282 -0.233715 
1.1786 7.2144 0.0527715 0.268645 
8.603 4.372 0.0586714 -0.133467 
3.2371 2.0309 -0.0900319 -0.0950619 
2.2254 12.0119 -0.0716936 0.189415 
12.5537 11.8483 -0.0572671 -0.0686543 
7.5149 4.839 0.00270559 -0.100221 
13.3324 14.4023 0.205214 -0.12838 
7.7162 11.1751 -0.0303086 0.351658 
1.5804 11.884 -0.0125104 0.221159 
1.3101 6.1408 0.0479998 -0.139017 
8.7455 7.4396 0.0723136 0.0156597 
10.2311 10.7104 0.212944 0.0842901 
9.9129 11.9763 0.309602 0.00850848 
2.3431 6.4935 -0.0191352 -0.0671092 
11.9575 2.6103 0.0597495 -0.110037 
5.4267 8.8071 0.0150986 0.00226993 
11.1039 3.7869 -0.0908203 0.0422931 
9.2567 1.9597 -0.066597 -0.248086 
6.1912 6.655 -0.230623 -0.0843326 
9.936 3.4636 0.0938408 0.0505699 
12.0177 13.5537 -0.185322 -0.00314772 
2.4716 1.4666 0.151602 0.0587599 
10.1701 1.1399 0.204596 0.14165 
5.6005 9.6183 -0.0754016 0.0824936 
1.1328 1.9412 0.299783 -0.217505 
10.9807 5.3367 -0.10508 0.207594 
1.3795 4.8353 -0.111443 0.144651 
11.6542 4.3041 -0.11911 -0.0289545 
0.7369 4.161 -0.165539 0.0682214 
8.7518 3.6972 0.0293906 -0.00754413 
9.4518 8.733 0.0215381 0.178897 
4.7662 7.8416 0.263901 0.0481526 
9.6498 9.0704 -0.191821 -0.141207 
1.8279 3.9516 0.0756187 -0.00493305 
3.2631 5.6423 0.305633 0.0748018 
1.3459 3.8475 -0.107104 -0.094304 
1.8058 11.3331 0.267379 0.10733 
7.1376 4.2529 -0.0356054 -0.108936 
7.986 5.9194 0.0588486 -0.0592936 
3.6548 14.5635 -0.026326 -0.0432641 
3.8952 1.0882 -0.120064 -0.0246297 
3.9771 5.9644 0.141359 0.0678269 
7.4512 4.0626 0.023452 0.0589851 
11.572 2.2084 -0.189139 0.0525654 
6.1035 10.2186 -0.0560071 0.0599304 
4.2534 8.0643 0.152283 0.0190487 
7.4386 10.3353 0.0764154 -0.0484013 
12.496 7.1581 -0.175314 0.086458 
13.0431 11.4075 0.185944 0.0643739 
8.7447 5.0739 0.104748 -0.281615 
12.5245 8.8755 0.0681284 -0.156123 
3.2898 11.0571 -0.181147 -0.224363 
11.8075 12.0228 -0.00459975 0.186174 
11.0484 13.1755 0.113635 0.0486137 
4.6256 8.2216 0.128691 -0.100261 
5.5985 4.6302 0.0648016 0.0484179 
5.1601 5.4423 0.193512 0.149578 
2.5764 9.4031 -0.0586205 -0.119524 
12.4609 11.5556 0.00473256 0.00399225 
12.9354 14.1791 -0.280926 -0.182873 
4.976 9.442 0.00746771 -0.126503 
8.1992 10.2012 0.0490097 -0.152249 
2.683 8.224 -0.285062 0.0165304 
2.8817 9.3859 -0.214898 0.0710242 
6.6493 0.8095 0.116096 0.0637505 
8.3407 10.7381 0.159938 0.142283 
12.0421 1.6911 -0.0261756 -0.0633358 
9.0651 1.2453 0.0701525 0.294537 
8.2477 8.7806 0.120612 0.335223 
11.1182 4.7599 -0.105226 -0.0896985 
11.8239 7.608 -0.0267038 -0.126021 
9.509 3.3683 -0.0110719 -0.104148 
6.038 12.4244 0.117074 0.0664739 
6.3532 2.7494 -0.10617 -0.0889147 
4.8226 11.2255 0.256925 0.0916621 
6.0349 0.5487 -0.1015 -0.0801175 
11.5945 7.1433 0.0550888 -0.0731668 
7.4544 7.0638 0.114826 0.00223047 
4.6702 9.2978 -0.0767564 -0.0870058 
12.0067 0.5611 -0.032457 -0.257172 
0.6346 4.3711 0.0763386 -0.0225173 
10.7015 13.3856 0.127142 -0.0705192 
9.5323 1.8167 0.14711 -0.05208 
11.3354 4.6982 -0.105922 -0.145241 
8.4165 7.9043 0.0296963 0.0786847 
3.9526 12.8599 0.0340208 -0.21833 
4.5293 1.4269 0.183816 0.017969 
11.546 10.2638 -0.0538226 -0.0344611 
8.3091 7.5924 -0.170844 0.0500358 
3.2418 14.093 -0.346527 -0.0322957 
2.2648 7.4659 0.179075 0.179458 
4.0504 14.4354 0.0725612 -0.27993 
12.118 1.4728 0.0247986 0.0935093 
3.6645 10.3054 0.131943 0.107822 
0.5194 7.0323 4.20762e-05 -0.10811 
13.0018 11.9515 0.130236 0.229476 
10.0661 7.2492 -0.129595 0.263369 
12.9291 10.6684 0.0625743 0.0115934 
7.8133 10.1828 -0.180799 0.0657163 
6.7781 10.4964 0.102465 0.0677655 
0.5658 8.3949 0.244278 -0.0560974 
11.0825 13.7911 -0.00739928 -0.127248 
7.7896 9.0181 0.0312797 -0.0760034 
1.0792 7.7978 0.0655645 -0.0788555 
6.3623 7.5902 0.108051 -0.0974785 
11.1124 7.9425 -0.0282121 -0.0380624 
12.0646 4.8015 0.0252953 0.0860703 
3.7445 3.5994 0.0910044 0.003305 
1.7585 10.0362 -0.111539 0.264316 
1.7835 10.6487 -0.225346 0.0863474 
6.1518 14.3978 -0.140049 -0.0465517 
13.1003 4.3729 -0.107814 -0.044534 
5.4986 11.5949 -0.0310102 -0.00439104 
12.1865 2.9929 0.0448048 -0.0224412 
8.8497 8.7808 0.135377 0.0169922 
9.6995 4.2062 0.102176 0.030928 
6.5279 5.0605 0.0642898 0.191022 
12.7501 13.0421 0.186864 -0.0316751 
0.8358 3.3804 0.0656328 -0.238303 
9.6967 5.7584 0.0863208 0.277996 
6.2123 2.5009 0.00719093 -0.251817 
12.3076 12.6807 0.182783 0.165107 
6.1384 1.3959 -0.171526 -0.162118 
1.6604 14.7535 -0.285629 -0.0817101 
2.2495 8.0722 0.000849943 -0.309997 
11.3245 9.7627 -0.0779661 0.261672 
13.4423 3.8302 0.131185 0.187732 
5.513 1.1307 0.0387699 -0.0253999 
7.1476 7.0121 -0.19887 -0.0114565 
1.2397 9.3805 -0.105648 -0.485842 
7.4611 6.7038 0.0788147 0.139672 
8.0125 11.838 0.330405 0.236881 
11.5978 9.2434 0.0670962 -0.105897 
4.5221 0.5901 -0.0199276 -0.387255 
12.0706 11.4404 -0.00359605 0.0160174 
10.0505 7.9699 0.170734 0.0789334 
12.5503 5.3103 -0.346342 -0.108167 
4.9946 3.2843 0.0827754 -0.0921311 
12.9125 0.6291 -0.0487758 0.142766 
11.9391 6.2607 0.169114 -0.0499115 
3.833 3.911 0.145271 -0.0797319 
0.7809 10.5722 0.0724833 0.237722 
12.2056 8.4386 0.151717 -0.151661 
9.7485 7.3126 -0.18731 -0.361125 
12.4677 6.296 -0.10821 0.230582 
6.3213 6.3314 0.287808 -0.239864 
6.9043 3.4332 0.00339673 -0.0614016 
5.3271 7.8759 -0.010722 0.28174 
12.253 10.547 -0.0406967 -0.166092 
9.3073 4.4323 -0.0187845 0.0455399 
9.1263 4.1299 0.057799 -0.157333 
9.8161 6.9928 0.0115375 0.25971 
10.7825 1.5947 0.201894 -0.0599424 
10.897 5.7379 0.0794245 -0.172732 
10.9773 12.4188 0.0123907 -0.0644889 
12.5644 3.0114 -0.0339028 -0.0589608 
11.9029 1.3834 0.111504 -0.190032 
10.2325 8.1289 0.210521 0.0612028 
1.6754 2.1542 0.159458 -0.106638 
8.8464 10.3253 -0.116065 0.154627 
7.8564 12.2264 0.191712 -0.126164 
6.0058 13.3357 0.109469 0.217748 
1.0456 11.2914 -0.145027 0.27861 
12.1431 12.2092 0.152506 0.21303 
2.1464 13.7514 0.0164967 -0.0517288 
2.5332 13.483 -0.224357 -0.119897 
11.1951 5.072 -0.0855131 0.278655 
2.7543 3.836 -0.218021 0.0266702 
6.0369 11.7468 -0.077445 0.140225 
10.2985 3.378 0.0270748 -0.0735471 
3.0037 11.7958 -0.0720292 -0.0807451 
10.3564 11.995 0.273588 -0.0171974 
4.8905 12.3113 -0.0201094 0.00123726 
9.2631 14.7129 -0.0700298 0.0477582 
3.9315 12.3798 -0.074447 0.0267669 
4.8571 9.0259 0.00441763 -0.155436 
4.673 6.6215 -0.0862467 -0.0493901 
0.7657 1.1985 -0.182308 -0.279336 
4.2838 8.4895 0.0521527 -0.222859 
4.1415 6.6439 0.0371658 -0.239461 
7.5594 11.8973 0.227156 0.182185 
13.2044 4.8716 0.0334036 0.109366 
13.4285 10.0061 -0.00513415 -0.0229083 
10.9901 10.123 -0.0322512 0.352037 
4.7004 3.3327 -0.0183403 -0.0403709 
9.0962 11.0231 -0.00338691 0.189637 
0.6454 14.0791 -0.0608188 -0.0245811 
6.3964 14.7368 0.0448243 0.0285109 
13.4158 4.4235 -0.0285402 0.200905 
8.6943 1.5224 0.0971951 -0.240276 
8.9845 14.2017 -0.124067 -0.0528984 
6.4427 11.5349 0.121286 0.156689 
3.0387 3.2546 0.22971 0.229939 
7.7233 4.6652 0.00697084 0.0279689 
12.2153 2.0038 -0.152724 0.00137487 
13.5081 13.2104 0.00383754 0.0665823 
12.4537 2.2497 0.0747198 -0.0726882 
3.038 10.8392 0.027717 -0.124061 
13.8039 3.2441 -0.0486922 0.387127 
1.5181 12.6679 -0.138983 0.0295289 
5.9414 13.0989 0.1557 0.0842179 
9.981 5.4396 -0.212435 -0.0532613 
11.4032 0.6882 -0.00732093 0.139295 
11.1457 0.7516 -0.107672 -0.0338407 
4.0717 10.7492 0.0238824 -0.204832 
10.6886 8.1303 0.0455941 -0.135066 
11.0046 9.2095 -0.262985 -0.209697 
1.5296 12.1403 0.214272 -0.0308901 
1.1437 11.5198 0.226451 -0.186008 
4.7085 3.8317 -0.00649835 -0.102331 
12.457 10.1734 0.232591 0.0786609 
4.1728 7.4666 -0.0876938 -0.0647349 
2.5953 8.7936 -0.110381 -0.113609 
12.7092 4.5752 -0.0188206 -0.102808 
11.1754 7.1565 0.131185 0.087114 
2.1915 12.698 -0.0405885 0.183189 
8.9587 12.3374 0.0935439 -0.179326 
10.5801 12.0373 0.0181794 -0.266 
0.8708 4.5894 -0.318404 -0.154363 
4.7451 3.5697 0.147824 -0.121427 
8.3357 2.9513 0.133651 0.109314 
7.9351 6.3077 0.156118 0.226971 
6.3503 3.4987 -0.103177 -0.180075 
2.4869 9.9801 0.0586526 0.0728531 
8.3027 5.2018 0.0701615 0.0934377 
10.8311 6.5948 -0.105234 -0.0543103 
8.1247 6.6902 -0.148866 0.0478179 
2.3262 3.2401 -0.14122 0.104974 
13.4867 3.2961 0.371436 -0.0295683 
3.4302 12.9919 -0.43832 -0.215687 
9.091 11.6505 -0.105507 -0.0123667 
2.2602 10.9259 -0.303107 0.138408 
11.5958 0.6306 0.0958514 0.106078 
4.8522 14.6163 0.223604 0.0362972 
3.9382 13.3489 0.0287275 0.241838 
5.2891 3.2719 0.111896 -0.00171648 
6.2659 9.8857 -0.0501609 0.101551 
8.1021 3.8198 -0.120073 0.0471577 
12.1975 6.1997 -0.196692 -0.200532 
1.6583 4.9634 -0.199253 0.0687481 
8.4912 4.7346 0.00901334 0.119199 
1.6027 1.7159 -0.23018 -0.222366 
8.5497 9.3818 -0.119343 0.196748 
13.9697 6.5527 -0.0950341 0.0273503 
1.6352 11.4652 -0.126974 0.190263 
7.9252 13.9461 -0.242165 0.0344707 
5.0312 7.9406 0.0933789 -0.23389 
8.2202 14.6337 -0.124403 0.148558 
0.5024 11.3765 0.0672046 -0.130364 
8.9996 4.6179 0.0166115 0.133183 
2.6354 5.2251 0.119241 -0.178048 
7.0495 1.6099 -0.114294 0.131116 
1.4311 1.9154 -0.0789518 0.217304 
13.0603 10.2307 0.117569 -0.05104 
4.6454 2.9894 -0.267313 0.120127 
7.4893 2.6005 -0.0787459 0.279581 
12.7682 8.8151 -0.0259524 0.140031 
11.3454 3.364 -0.0580547 0.0522811 
7.2392 13.717 0.0133779 -0.0222813 
9.2718 8.9356 0.039483 0.0751975 
7.884 14.7501 0.0290407 -0.0319981 
7.9558 13.3985 0.00184642 -0.178591 
10.8207 14.4729 -0.145378 0.271254 
12.9229 12.6956 0.0809973 -0.1716 
8.8572 12.746 0.11372 0.269673 
6.71 11.9093 -0.106361 -0.133816 
4.3676 6.1127 -0.298043 -0.21335 
6.9404 10.6281 0.0887568 -0.0640686 
11.5746 14.4306 -0.0464531 0.01972 
6.1447 11.5446 -0.163697 -0.160956 
13.1546 9.3578 0.113554 -0.0171509 
12.4189 0.9403 0.148629 -0.135029 
8.607 10.2619 0.107678 0.057409 
9.6467 1.3515 -0.181342 -0.0444979 
10.6469 12.8648 -0.140346 0.162202 
9.9979 4.6639 0.0970148 0.0181399 
12.3409 10.9182 0.117572 0.155726 
10.8634 7.7439 -0.015335 -0.183155 
4.793 11.9359 0.0330005 -0.00899957 
4.7784 6.4314 -0.149827 -0.04334 
7.7453 12.9544 0.23728 -0.0493691 
13.8953 13.0317 0.107378 -0.0919163 
0.8514 8.0698 0.446993 -0.0130547 
7.9981 6.8525 0.0573541 -0.276053 
2.6868 11.2573 0.261845 -0.00271213 
1.8223 1.6827 0.18159 -0.0183951 
6.9504 2.1249 0.161664 -0.274451 
11.9327 8.126 0.0543949 -0.0269377 
13.1802 7.648 -0.0519422 0.0588683 
6.4611 1.8223 0.279559 0.0450389 
13.24 5.3807 0.10868 0.151216 
3.7353 5.4809 -0.158483 0.0426201 
12.6453 5.688 -0.242912 -0.175167 
1.326 2.33 0.146715 0.138282 
9.2588 10.8545 -0.227906 -0.0486129 
10.4781 9.5138 0.284033 -0.0315532 
1.5213 8.0865 -0.0431632 0.107946 
9.1045 1.6511 -0.0543503 -0.137262 
12.7557 10.2735 0.081448 0.00365054 
0.656 2.1128 -0.145627 -0.0595832 
11.6373 4.7042 0.0105739 -0.216446 
4.7131 13.7523 0.0639048 0.223317 
8.7236 1.2647 -0.0223283 -0.212351 
11.5151 9.6409 -0.00644254 -0.161219 
0.7992 12.1829 0.0576269 -0.148057 
7.0574 8.0035 -0.146271 0.0521976 
5.9978 1.2277 -0.126169 -0.0163714 
4.8616 7.2866 0.0583235 0.0113811 
10.5543 6.484 0.107762 -0.0260447 
9.1583 13.4822 0.128933 0.196313 
4.2519 14.0247 0.0941265 -0.208601 
9.4516 6.8765 0.17652 0.133129 
10.6609 11.0709 -0.0213092 -0.0236765 
10.8188 8.775 -0.0105504 0.0352829 
13.714 10.3876 -0.234048 -0.215662 
0.9786 8.4247 0.11115 -0.0700418 
3.8976 2.9454 -0.149659 0.160066 
3.4083 2.2963 0.0307671 0.0583783 
7.8525 13.1512 0.0902983 -0.136647 
4.5874 5.2149 -0.236711 0.0925344 
5.6208 5.3216 0.0926339 -0.174873 
10.7705 14.1885 0.404657 -0.0559799 
13.8665 10.712 0.193227 0.0198822 
11.9138 5.9045 -0.173851 0.19254 
12.9495 5.7893 -0.223948 0.0557819 
3.312 6.273 0.207411 0.124576 
2.6819 5.5274 0.0681865 -0.0313547 
3.1204 9.1613 -0.321107 0.190978 
1.8929 6.4234 0.154008 -0.17499 
11.7485 0.8256 -0.126719 0.139416 
11.4956 7.975 0.185503 -0.2399 
10.3305 2.3365 -0.196053 -0.198059 
7.1183 6.5558 0.0268162 0.0461157 
11.9557 8.4145 0.0795421 -0.0236358 
4.1488 12.4443 -0.160522 0.0324809 
13.1961 1.3299 -0.155182 0.171755 
6.2425 7.0557 -0.345017 0.0024831 
5.8471 8.3437 -0.0117949 0.0583062 
12.1498 10.1762 -0.214818 -0.126018 
1.603 0.9294 -0.0246232 -0.00594508 
2.9992 13.0703 0.0302327 -0.0147674 
5.7076 1.3052 -0.0204874 0.0843675 
3.1267 0.8903 0.108557 -0.116663 
8.4504 3.8022 -0.0754937 -0.0651257 
8.6744 8.4839 -0.0884511 0.129906 
11.4622 3.1695 0.113597 0.278514 
1.2319 3.3863 0.0293325 0.0920698 
6.3475 11.7959 -0.149804 -0.108781 
9.1685 6.5157 0.109145 -0.067011 
8.675 13.6234 0.0574567 0.0569852 
2.7425 14.7788 0.299174 -0.119873 
8.9191 4.3045 0.0147748 -0.0592099 
11.4872 11.299 0.09022 -0.0549288 
2.7147 13.2934 0.168266 -0.209737 
0.937 1.3231 -0.015374 -0.0725475 
5.0585 3.8035 -0.102164 0.198475 
9.9426 1.3937 -0.0659864 0.117864 
8.1246 7.818 0.128656 -0.00732833 
12.0893 14.4051 -0.0132072 0.104267 
2.6004 12.3288 -0.229057 -0.0794039 
0.7948 5.6429 -0.444785 0.144758 
7.126 11.0976 -0.146299 -0.070989 
8.2452 1.9248 0.00886561 0.0835228 
12.0412 3.4182 0.16414 0.117645 
1.3554 1.2206 0.0880225 -0.0819 
10.2952 3.0386 0.117871 0.0550788 
13.0412 6.4286 -0.118742 0.0966443 
8.9102 3.1966 0.0549517 0.177102 
4.165 3.1178 0.234539 0.0111951 
7.8848 13.629 -0.0103806 -0.00662406 
8.1323 8.9744 0.0285153 0.124147 
6.7499 9.7592 0.249288 -0.170046 
6.3756 5.6224 0.0209499 -0.207387 
3.8037 2.4038 -0.100129 -0.23845 
9.8319 4.792 -0.0772245 -0.216925 
12.6429 11.1341 0.253777 0.140079 
2.5219 5.7905 -0.0311133 0.303295 
12.3145 14.2707 0.283938 -0.0152939 
4.1776 1.6357 0.0990363 -0.362274 
3.8375 8.406 0.190759 -0.137273 
13.4338 10.2849 -0.0854891 0.0323013 
2.1869 4.1889 0.0727947 0.170912 
4.3759 2.4644 0.176351 -0.125283 
5.3411 13.37 0.000564234 -0.0842966 
9.8651 4.4916 -0.301679 0.0665732 
8.6096 2.8756 -0.0341637 -0.0210351 
7.656 11.6142 0.0854951 -0.0314392 
12.943 5.2059 0.0140845 0.32541 
5.4176 2.8532 -0.0483742 -0.107537 
1.8171 7.7877 -0.14881 -0.187503 
2.9691 6.9015 -0.098473 0.191795 
11.5855 1.4979 -0.0853711 0.288843 
7.8992 11.4647 0.034226 -0.0192467 
9.8906 2.4213 -0.115215 -0.0370144 
10.1757 1.6801 0.00694034 0.199708 
1.2989 14.4253 -0.191012 -0.0946597 
2.525 1.7863 -0.108029 -0.0303247 
4.8456 1.7399 0.07014 -0.066847 
5.9561 6.0169 -0.0805905 -0.0755176 
11.1735 1.4407 0.0435975 0.200984 
9.8889 10.6803 0.206889 0.008214 
13.0119 1.6954 0.0476502 0.0621048 
13.9202 4.0672 -0.0838704 -0.0853756 
1.7738 13.6373 -0.0197046 -0.0918835 
7.5396 8.4917 -0.0376415 -0.12363 
0.8455 14.1435 0.106559 0.00969337 
3.0118 2.2356 0.306162 0.022128 
12.3102 8.7059 0.00588133 0.0912216 
4.1359 7.1174 -0.106303 -0.0532473 
7.1851 10.7466 -0.291329 -0.0552072 
4.9029 2.5084 -0.133229 -0.0725625 
2.52 7.371 0.0375184 -0.136951 
8.6019 12.89 -0.153036 -0.260753 
9.9861 4.2756 0.0416427 -0.147314 
9.9484 2.9682 -0.131554 0.0314919 
10.0389 5.8008 -0.166644 0.0358129 
12.6719 9.6027 0.277357 0.0162674 
8.8702 1.0468 -0.0603721 0.180828 
1.454 10.7144 -0.211146 -0.344388 
8.8417 5.5442 -0.159664 0.0488669 
6.6174 7.0922 0.0864013 -0.0550509 
5.1967 6.734 -0.0130368 0.0917814 
0.5512 2.4848 -0.146099 -0.039554 
8.5454 10.5041 0.25747 -0.0438201 
8.2164 1.6683 0.188654 0.286166 
13.442 1.8004 0.226008 -0.0619947 
10.5462 6.0132 -0.123671 -0.0888002 
3.7111 13.0136 -0.228851 0.0148798 
4.5956 4.1511 -0.0605241 -0.319346 
4.3759 2.1605 0.0584354 -0.0224161 
13.7463 11.6565 -0.146685 -0.0664016 
10.3711 5.0864 -0.0161381 -0.0653856 
12.9559 3.1014 -0.00839085 -0.0676675 
7.5156 14.1965 -0.0857875 0.177831 
2.2653 5.2833 0.203471 -0.120199 
13.8615 4.8728 -0.112606 0.142972 
7.9973 1.3128 0.236896 -0.0239497 
9.5972 2.4849 0.00281069 -0.00240829 
13.7328 8.9357 0.209122 -0.0983309 
8.0247 2.5795 -0.107251 -0.0323486 
1.7875 2.3965 -0.206262 0.200373 
7.7715 2.8071 0.0534665 0.0875784 
2.4069 8.3798 0.112255 0.0808289 
2.4696 8.1228 0.142345 0.00583967 
13.0116 14.4256 0.0692902 0.246639 
11.1653 5.843 0.00742395 -0.0781742 
12.9959 12.5092 0.30855 -0.129981 
4.6079 14.7308 0.0900385 -0.115668 
10.1899 5.2017 -0.105265 0.219265 
1.5641 2.418 0.168412 0.304072 
2.1475 6.8657 0.228002 -0.175477 
11.2292 9.2853 -0.0718081 0.0137863 
8.7345 4.7067 -0.0244696 0.0417623 
4.626 10.7134 -0.0376852 0.000367994 
12.3326 7.7056 -0.298245 -0.188106 
8.8058 11.8267 -0.141567 0.260052 
11.052 8.9566 -0.110874 -0.0457384 
5.6256 1.5038 -0.0181543 -0.151098 
12.7701 6.9956 -0.0244876 -0.0748809 
1.5846 7.0917 0.107699 -0.152647 
5.1122 4.28 0.202161 0.139226 
12.2635 2.3406 -0.0837029 0.0366516 
2.8966 0.6865 0.154858 0.1603 
6.7679 4.0615 -0.0674278 -0.302404 
6.6094 6.8869 0.0501531 0.11673 
2.651 9.7435 0.122018 -0.00120462 
3.134 12.4155 -0.106134 -0.0410142 
9.1645 7.5535 -0.0137381 0.164011 
4.3039 2.72 0.155597 -0.00144398 
4.9278 2.2116 0.156295 -0.0922937 
6.7905 6.4109 -0.147418 0.0144144 
3.7823 7.521 -0.121608 0.144536 
2.0087 10.0049 0.0887679 0.205798 
0.5667 1.0406 -0.0202806 -0.125029 
10.0436 12.8573 -0.098424 -0.151814 
4.016 10.422 -0.00829155 -0.200835 
7.0211 4.4161 0.10275 0.0793143 
11.7723 5.3822 -0.208274 -0.273525 
7.2873 0.6968 -0.168659 0.0603863 
4.9918 0.8011 0.297619 -0.240879 
13.9098 13.8655 -0.0618748 0.178028 
0.5244 10.8689 0.0282604 -0.225693 
1.4226 12.4602 0.202464 -0.0371443 
5.5245 4.3656 0.00125393 0.221326 
7.1066 3.674 0.0809281 -0.174898 
12.1598 11.2365 0.0831294 0.135094 
12.248 5.4675 -0.208426 0.174291 
9.3537 9.6649 -0.073131 -0.224903 
2.0186 5.4574 0.0949906 0.102772 
12.7551 4.1705 0.146539 -0.0791047 
2.5582 1.1993 0.085741 0.131815 
0.7756 4.9255 0.42112 0.0179172 
13.8353 2.4935 0.121098 0.12512 
13.3071 6.0257 -0.175997 -0.206202 
13.9894 4.5448 0.00956734 0.0545784 
11.1344 14.6221 -0.0109376 0.082531 
12.7333 2.4792 0.115162 -0.167501 
0.7586 6.9721 -0.0263639 0.141427 
12.1414 9.5281 0.0332219 0.120884 
5.4169 6.0704 -0.0391747 0.161143 
10.1432 12.5627 0.00385701 -0.113372 
3.6746 13.9944 -0.0475523 -0.295407 
8.5281 8.2091 -0.0532293 0.0920593 
2.8107 13.8148 0.0382662 -0.0035679 
7.2303 5.2501 -0.0610169 0.0460425 
1.5083 6.1892 -0.0609563 0.0476461 
13.5095 11.7369 0.233452 0.147839 
13.6703 8.6975 -0.0562488 -0.0943779 
10.433 10.6044 -0.0380982 -0.155442 
13.3763 2.9265 0.0915818 -0.0956685 
7.2765 11.7059 -0.260415 -0.035125 
12.8342 13.7689 0.0450726 0.0403874 
6.2069 10.4742 -0.0720608 0.0185684 
6.009 5.1192 0.120294 -0.0068183 
12.16 3.632 0.141978 0.0239478 