ITEM: TIMESTEP
0
ITEM: NUMBER OF ATOMS
2100
ITEM: BOX BOUNDS pp pp pp
0.0000000000000000e+00 2.8000000000000000e+01
0.0000000000000000e+00 1.5000000000000000e+01
-1.0000000000000000e+00 1.0000000000000000e+00
ITEM: ATOMS x y vx vy 
11.8679 3.8889 0.0347467 -0.0773555 
3.5098 13.6492 0.225969 -0.136412 
7.4888 3.7418 0.103561 -0.0425225 
13.6053 2.7541 0.112685 -0.181926 
8.4945 7.1363 0.0620519 0.0904033 
10.9925 1.9295 -0.245378 -0.041331 
3.5767 5.8287 0.191741 0.0657183 
13.1674 1.1825 0.0290538 -0.0203761 
12.738 2.3748 -0.0703475 -0.163973 
8.8003 4.159 -0.264262 0.0615642 
9.5096 4.418 0.329557 0.252101 
1.6293 13.9836 -0.0112338 0.106099 
11.9482 10.8314 0.112918 0.001755 
9.9777 8.7619 -0.14762 0.118755 
10.844 9.9062 -0.0193669 -0.111858 
7.1972 6.3455 -0.0625654 0.146592 
9.0376 4.9247 -0.0167002 0.290643 
2.3489 5.7586 0.0838005 0.0266794 
4.2029 5.2984 0.0966152 0.11799 
2.6772 12.4177 0.1382 -0.0828944 
10.9026 11.6649 0.0372399 -0.188202 
7.8265 9.2764 -0.0904051 -0.190644 
11.0888 4.5426 -0.121106 -0.148561 
12.4458 13.1898 -0.095197 0.0704879 
4.152 3.4684 0.246841 -0.108177 
11.507 2.7805 -0.0424821 0.127041 
1.6075 14.2408 -0.163516 0.132367 
4.0424 9.4252 0.0355963 0.275282 
6.7407 13.0011 -0.163757 -0.167666 
1.7555 11.0037 0.283146 -0.135419 
5.0316 3.6222 -0.116371 0.0269862 
13.0455 12.6819 0.0381811 0.086113 
12.86 11.3447 0.219339 -0.0150709 
2.6939 12.6887 -0.069273 0.0380284 
4.2847 1.8337 0.157835 0.0317867 
6.5578 14.2029 -0.0940786 0.100018 
11.2325 1.1355 0.15308 0.195071 
13.7864 12.778 -0.0266607 -0.222565 
6.2017 0.6405 -0.0695406 0.100108 
12.0462 1.8805 -0.242405 0.106585 
6.4519 1.5601 -0.19086 0.0238648 
5.1831 13.3818 0.191212 -0.0734477 
3.7416 6.9313 0.026601 0.0550224 
9.8707 4.619 0.0995574 0.174172 
11.3643 10.9829 0.0542192 -0.254624 
10.9888 9.7281 0.22498 0.220994 
12.3815 2.4524 0.099009 -0.2198 
11.9401 2.3897 0.136401 -0.00709719 
8.9514 12.1239 -0.106652 -0.0629374 
1.484 10.7127 0.134169 0.0513433 
9.2626 12.4066 -0.168039 0.0162072 
7.3673 11.7794 0.0753132 -0.0543784 
11.8927 14.6763 -0.108918 0.0928639 
11.8361 9.713 -0.242022 -0.0246633 
13.2545 11.2526 -0.173463 -0.0793901 
12.5362 6.7466 -0.155664 0.169224 
5.9424 9.2059 0.101331 -0.0742359 
10.0456 11.3146 -0.0296234 -0.117922 
11.4265 1.6095 -0.0617823 0.120953 
5.2402 6.4555 -0.0374342 0.172677 
0.7689 10.8643 0.102588 -0.132296 
2.0274 1.3443 0.103616 -0.0771941 
1.6156 4.0527 0.169251 -0.214619 
3.4069 7.1515 0.0652734 -0.0581815 
2.0022 11.281 0.163258 -0.0799213 
1.8897 12.3069 0.0777054 -0.0350354 
8.648 1.9801 -0.111934 -0.0467869 
6.54 1.2524 -0.0244397 0.202192 
11.318 12.3217 -0.275611 -0.0373932 
1.6679 2.2533 0.0919955 -0.0474205 
12.541 4.7556 0.0401388 -0.114061 
3.7183 8.8885 0.224526 0.0555581 
1.7751 10.5986 0.0986987 0.0593103 
6.5778 9.1518 0.0893034 -0.125168 
12.095 5.5764 0.394252 -0.128935 
11.2117 3.5858 0.181878 -0.116719 
5.1052 10.9705 -0.0135632 0.00959316 
1.04 13.4919 0.0544477 -0.169867 
5.6908 5.6566 -0.016441 -0.0210971 
5.8161 8.1164 0.15774 -0.010235 
2.561 4.5716 0.225709 -0.13568 
6.5527 8.331 0.0488451 0.028852 
11.6945 7.1631 0.0541616 -0.258279 
9.096 11.7964 -0.0766986 0.157867 
8.7191 12.6505 -0.0555879 0.304605 
12.1651 13.3706 0.104466 -0.125014 
4.2122 9.9882 0.251967 -0.121097 
4.9073 8.5274 -0.000387137 -0.118342 
11.9117 2.8867 -0.190456 0.000406277 
5.2484 9.2777 -0.00885383 0.146256 
4.2033 4.7772 -0.0336519 -0.260138 
7.1942 11.0684 -0.0132678 0.010654 
7.6745 1.0666 -0.0276874 -0.128217 
12.6931 1.978 0.219548 -0.230197 
4.6192 10.1803 -0.309729 0.148476 
2.7424 10.8921 0.147531 -0.0468433 
1.4793 12.6399 -0.188577 -0.17385 
13.1844 12.2361 -0.113292 0.212605 
7.1467 14.1957 0.0225143 -0.0388932 
10.4297 3.0665 -0.0506047 -0.000155049 
5.9311 6.3136 -0.0374355 -0.0162168 
9.8802 2.6029 -0.0888336 -0.0959531 
5.6644 4.762 0.0386749 0.0214932 
13.9807 5.6389 0.243622 -0.0345744 
5.123 0.8182 0.00721649 -0.0496658 
2.7009 13.0733 -0.180381 -0.0231638 
6.7695 12.6822 0.0550434 -0.113403 
7.4798 7.895 0.152569 -0.034849 
12.6714 6.9443 0.0210556 -0.101511 
9.4308 7.0905 -0.192485 -0.0218843 
8.069 7.4087 0.056052 -0.0965801 
1.5178 1.5844 0.0720281 0.0479546 
6.709 10.54 0.0732729 0.147357 
13.0608 6.6069 0.145075 0.0364892 
5.8803 11.3108 -0.15058 -0.0950918 
1.5258 11.1869 0.0860017 0.0486453 
6.0588 6.7448 -0.0697398 0.0655267 
7.1954 13.9615 -0.163752 -0.0163312 
2.4001 2.1519 0.118341 -0.255004 
12.7191 14.1123 -0.101163 -0.113587 
10.5712 4.5052 -0.0662585 0.115265 
3.1331 14.2702 0.0917639 -0.098729 
3.9482 3.2639 -0.420929 -0.0228255 
5.2514 1.5708 -0.0157981 -0.0435631 
12.114 8.7701 0.0980669 -0.0816041 
12.5317 10.9133 0.158483 0.0723739 
13.7274 8.0696 0.0249573 -0.250952 
12.1019 9.2844 0.241768 -0.301062 
4.1709 7.8896 -0.184833 -0.178166 
3.3824 12.9572 0.00622231 -0.140317 
6.319 5.2735 0.118089 0.0949421 
1.3539 2.4356 0.103948 0.0973442 
2.0659 9.4545 -0.0231744 -0.0439259 
11.1082 7.6156 0.078013 -0.000330443 
9.8137 9.8963 0.16023 0.0572343 
6.1821 2.3237 0.0124926 -0.0520585 
5.4645 4.4323 -0.00674636 0.0685205 
12.3122 2.1916 0.0291448 0.0314292 
3.2671 14.5204 0.134879 0.144035 
1.866 12.0178 0.0947628 0.148273 
12.1645 5.9693 -0.0429843 0.0542674 
12.4631 10.3363 -0.0137362 -0.0798635 
2.0087 6.2677 0.106952 0.118758 
4.9693 10.748 -0.228739 0.0566434 
1.9141 3.3999 0.0495071 0.118962 
7.8755 0.821 -0.0662324 0.0611092 
12.3934 11.9537 -0.146522 0.0651607 
13.5448 10.8375 0.0118355 0.020087 
13.2138 4.5179 0.0905263 -0.113424 
8.2032 2.2224 0.0309077 0.13024 
11.9381 1.5252 -0.156568 0.0266961 
11.3221 5.7069 -0.00553749 -0.159544 
5.1359 2.169 -0.0770722 -0.0161495 
9.7447 8.983 0.0637364 0.0779574 
2.4301 5.3403 0.0555055 -0.091626 
6.8513 2.3907 0.138069 -0.156426 
4.6132 5.1318 -0.135831 0.116511 
10.4145 13.0977 0.100693 0.123546 
11.1235 13.7977 0.0899694 0.0756287 
8.919 8.9173 -0.14485 0.228264 
2.8785 11.9307 -0.011495 -0.0888347 
6.1736 14.3472 -0.127694 -0.0887073 
10.7211 3.5704 -0.0821079 0.0621321 
2.2635 3.6046 0.0157214 0.0228973 
5.395 0.9644 0.136115 0.294623 
5.2408 8.6093 0.173693 -0.0404062 
9.2694 5.5296 0.118988 -0.298292 
10.1111 7.264 -0.0191403 -0.205179 
13.9959 14.1303 0.0609247 -0.197204 
13.1751 1.5733 -0.0615014 0.129349 
10.5031 11.8004 -0.105608 0.239863 
9.9464 0.8302 -0.161325 0.191882 
3.4576 5.6255 0.0297628 0.292001 
13.0485 0.6495 0.168047 -0.250521 
3.7856 4.8972 0.15068 -0.100587 
5.0095 5.9016 -0.17411 -0.0909099 
8.4924 5.5818 -0.256748 -0.2554 
8.1732 2.536 0.0597143 -0.0265039 
10.4186 7.5913 -0.00300471 -0.0613714 
11.5503 3.9462 -0.152404 0.0840824 
2.5106 9.3923 0.0492946 0.14699 
4.2887 7.2157 -0.0432621 0.145504 
12.3567 1.1326 0.165002 -0.0172095 
2.4516 7.2687 0.242699 -0.229896 
7.2389 4.9946 -0.0889578 0.214481 
11.6874 4.7514 -0.0884961 0.00794821 
4.3261 8.8168 0.112901 -0.0904501 
9.8807 14.6478 -0.0569373 0.250203 
4.2813 11.1401 -0.28639 -0.0370857 
12.4181 12.3125 0.297981 0.0334973 
0.7723 6.6426 -0.0985032 -0.104502 
5.3635 11.6118 -0.0665785 0.138132 
9.8255 6.2615 -0.0307742 0.0198478 
5.7277 13.711 -0.0787905 -0.218206 
3.4264 14.281 -0.0127083 -0.00155074 
2.3635 12.5056 -0.209563 0.097368 
5.9262 10.16 0.0617758 0.0996933 
12.9065 1.1582 -0.218444 -0.0266417 
3.9168 1.6463 0.0713486 -0.0145963 
2.0838 2.0113 0.261209 0.0946467 
5.5603 9.9182 0.0347751 -0.0136876 
8.6565 3.0472 0.0294669 0.0839328 
2.6649 7.2836 -0.00967794 0.069672 
12.1101 3.6756 0.0833536 0.145771 
13.1375 3.1861 0.131688 -0.0739311 
8.4483 12.1772 -0.0728304 0.211123 
13.6734 6.0558 -0.024485 0.0256397 
1.859 6.9595 0.0619267 0.0578656 
7.4672 1.8974 0.178723 -0.0638733 
5.8677 4.8663 -0.20494 0.247111 
1.1142 3.6234 -0.0721245 0.0232157 
6.2839 1.1291 0.0884018 -0.0870258 
12.4401 5.5543 0.0465802 0.18251 
3.8579 4.5662 -0.0532298 -0.104133 
9.0823 11.2614 0.0803604 -0.164533 
1.0142 2.5754 -0.151662 -0.163876 
6.7875 5.1723 -0.0288001 -0.229642 
7.5568 3.4921 -0.136045 0.126595 
12.2639 8.5009 -0.0935424 0.0288885 
11.6737 13.1794 0.0587882 0.253171 
4.0113 4.1668 -0.321327 -0.048275 
4.7182 13.2105 0.127273 -0.230081 
7.8433 9.5146 -0.067902 0.209187 
9.1895 12.7616 -0.20891 0.00663861 
13.7889 3.6618 0.0852777 0.0211081 
7.4359 10.4382 0.0602314 -0.0368599 
7.0241 5.2159 0.0700294 -0.108887 
13.5643 13.046 -0.103752 -0.0763002 
3.3749 11.479 -0.0640669 -0.0286144 
0.7168 9.286 -0.00273634 -0.300127 
2.4362 7.068 -0.0629524 -0.0689042 
2.3166 1.6638 -0.0780159 -0.11548 
5.6373 9.2196 0.109724 0.0170478 
8.4196 10.6805 -0.0661154 -0.139171 
5.1471 2.5894 0.0472568 0.0876223 
9.4945 14.325 0.150211 -0.0806288 
8.2561 1.0938 -0.03468 0.0884994 
4.6918 13.7681 0.203525 0.0331181 
0.676 8.7259 -0.30786 0.199009 
11.3373 9.6548 0.187069 -0.345183 
13.3374 8.3816 0.0596795 0.0913493 
6.9824 5.4148 0.0647587 -0.288837 
11.8077 10.3309 0.148739 0.143907 
5.9938 12.1773 0.0634019 -0.00317314 
6.8245 0.8843 0.0380553 -0.39185 
10.2395 3.67 0.136441 0.0828341 
0.9839 3.8532 0.0209231 0.144901 
8.2225 5.8883 0.0206594 0.0765824 
13.8561 13.9421 0.00354129 0.138058 
5.3923 5.1447 -0.0200709 0.121077 
3.2497 9.0273 -0.0800188 0.0421371 
13.6461 4.5389 -0.0987024 -0.112758 
6.3095 7.7663 -0.118372 -0.0742118 
10.4015 7.8448 0.0299145 0.335944 
10.3389 0.6228 0.119181 0.0696102 
8.0537 6.352 0.163562 0.0111066 
9.0634 10.2984 0.0547018 0.0339117 
3.2558 13.3892 -0.0472451 -0.224183 
10.1439 10.5797 -0.0776222 0.0442 
5.6523 12.7757 0.19099 -0.140396 
5.2669 14.523 -0.207766 -0.035001 
3.6714 3.6921 -0.148818 -0.204454 
8.4393 2.0378 -0.0464632 0.13132 
4.4808 6.4285 0.161433 0.15976 
8.8749 13.5528 -0.126341 0.0614301 
8.8905 5.58 -0.00178953 -0.0493467 
0.8289 12.5122 0.13551 -0.0197412 
11.5236 10.2906 -0.0848888 -0.0757106 
2.0374 0.7522 -0.0163662 0.123463 
1.5692 12.9035 0.0581315 -0.0267476 
6.9046 4.8619 -0.115612 0.0502428 
9.4009 8.2794 -0.251481 0.131384 
9.6856 5.4623 0.176375 -0.147476 
4.6933 7.7853 -0.197354 -0.0592956 
4.4961 6.1549 -0.278174 0.236317 
2.9852 2.083 0.00311822 -0.0841545 
11.1487 2.9036 -0.176858 0.0830794 
4.6563 2.8036 -0.0356964 0.0870902 
8.7013 0.501 0.00832763 -0.00274281 
4.8127 10.0586 -0.0692217 0.0343156 
9.3596 8.8125 -0.215658 0.124733 
10.0712 5.269 -0.122947 -0.173949 
3.8564 7.2985 0.248248 -0.238064 
10.4716 6.7726 -0.00495747 -0.164004 
5.7864 10.7241 -0.0156082 -0.210619 
0.9261 11.9097 -0.137155 0.380609 
12.2358 13.7596 0.0214149 -0.0481711 
2.67 4.1111 -0.0901976 0.209575 
11.2942 9.8592 -0.0991889 -0.0896191 
7.3977 8.6162 0.0738922 0.160527 
2.903 13.8707 -0.232466 0.217715 
5.6338 9.4767 -0.0188205 0.212022 
4.9793 8.9546 -0.203078 -0.123917 
3.0718 10.2475 -0.0577521 0.0686795 
10.2216 10.9429 -0.0790439 -0.381284 
6.532 6.2377 0.0230561 -0.0740627 
4.7546 6.0874 -0.096158 0.0349528 
11.9005 9.2839 -0.0977058 0.216047 
3.0306 0.5836 -0.0367208 0.0802203 
5.6753 9.7232 -0.353874 0.182619 
8.3314 0.5668 0.0136205 0.13973 
1.6574 12.4523 -0.00423534 0.0327649 
3.6567 11.063 0.179554 0.0701616 
8.5506 4.1659 0.0806822 -0.0742965 
1.9563 7.3031 -0.122851 0.0638395 
2.7812 3.2427 -0.143829 0.115634 
4.9258 1.5195 0.111955 0.0657241 
12.4601 9.8445 0.123596 -0.0720017 
4.961 4.6918 -0.108323 -0.00875178 
2.8161 0.9939 -0.157871 0.398738 
7.1908 9.6961 0.409599 0.0656389 
10.8408 6.5426 -0.0321748 0.12125 
6.5369 10.0955 0.000524524 0.118004 
3.121 11.5804 0.0434895 0.00102103 
6.2975 1.7856 0.0379072 0.267838 
10.7619 8.9242 -0.0264227 0.196589 
9.8633 12.636 -0.0178113 0.0766436 
12.9047 5.4408 -0.0852662 -0.0235002 
9.777 10.1208 -0.119746 0.012792 
7.636 2.8008 -0.18513 0.243482 
1.4136 4.8329 -0.0795385 -0.202425 
7.7654 7.8158 0.0784809 -0.0954842 
2.0618 8.6884 -0.0551812 -0.104396 
10.3443 1.1159 -0.133747 -0.0199292 
1.4752 6.3182 -0.139676 -0.0416307 
0.9417 7.3022 0.0604248 0.194785 
10.2718 14.4495 -0.041447 0.159607 
7.6633 2.1871 0.0103178 -0.146961 
0.6205 1.4946 -0.121505 0.00700889 
2.6712 9.9261 0.161711 0.0393801 
13.9466 0.9744 -0.128132 -0.151765 
7.5943 9.4345 0.308946 0.182718 
1.3721 13.4395 0.0749679 0.174683 
3.5394 3.0999 0.188768 0.113912 
10.1154 1.29 0.0351431 -0.0189429 
5.6968 10.0818 0.111354 -0.113967 
13.9703 6.4892 0.148505 -0.116701 
5.7847 0.8945 -0.078762 0.118669 
3.1644 4.8282 -0.12145 0.0906882 
8.5701 14.7621 0.0476099 -0.0466486 
4.2461 13.3079 -0.00160788 0.318887 
11.3512 4.8715 0.0871457 0.07599 
1.2591 2.1987 0.0183923 -0.0533205 
8.4785 0.7027 -0.0683278 -0.116737 
0.6544 0.6376 -0.115088 0.032225 
6.4402 4.3303 0.301788 -0.184415 
4.7754 9.7054 0.254105 -0.0446633 
1.7644 3.2229 0.294993 -0.0440145 
13.9942 1.4503 -0.0562302 -0.161403 
1.8341 14.1218 0.0276072 -0.257451 
6.6477 7.8277 0.209411 0.0886109 
10.8345 6.8112 0.130624 0.0544831 
5.8432 2.6055 -0.0535659 -0.237156 
5.5002 10.4641 -0.093014 -0.0159548 
2.665 6.3382 -0.116538 -0.148433 
0.9673 8.1723 -0.211077 -0.00770821 
13.4258 12.4372 0.118935 -0.0723651 
13.5933 1.5458 -0.100124 -0.342308 
7.6503 7.3563 -0.00194044 0.0817534 
10.7061 8.0802 0.0628799 -0.228233 
9.7148 6.6161 -0.175404 0.0280865 
2.7427 10.4769 -0.0439326 0.0798815 
11.2572 4.1335 -0.101654 -0.0112886 
4.077 13.6054 0.0572105 0.213855 
10.0596 0.5983 -0.0971278 0.124539 
5.627 6.9511 0.0175011 -0.0992657 
1.4441 9.5154 -0.0740905 -0.0530485 
8.331 13.5108 -0.143368 0.025798 
9.1578 1.1773 0.0561033 -0.0387758 
5.1748 1.0274 0.0813423 0.176981 
4.5574 8.1257 -0.119942 0.0781492 
9.5465 9.3698 0.129132 0.00374327 
0.8551 12.1732 0.152953 -0.0618285 
13.8941 2.5621 0.0475635 0.0528303 
5.3492 7.046 0.135936 0.0189304 
9.5838 5.7961 0.239025 0.132577 
10.8721 7.7723 -0.222709 -0.0130379 
11.365 14.0706 0.0551396 0.05039 
5.5993 3.3669 -0.214463 0.0539688 
3.8718 5.4114 0.127513 -0.0825393 
4.1032 7.0857 -0.122088 0.0685658 
11.0941 13.9963 -0.107126 0.0687793 
6.2376 5.6629 0.272531 0.0681952 
6.3358 12.7271 0.216795 -0.0121498 
10.5259 12.2614 0.225598 -0.0021997 
5.7727 1.7593 0.0107766 0.202263 
5.9183 3.9349 -0.121854 -0.164271 
7.0001 6.6181 -0.120043 0.194352 
9.5776 6.3842 -0.0103687 0.123489 
10.34 4.4244 0.263989 -0.0984218 
5.4781 13.2513 0.0492106 0.116518 
1.8736 8.93 0.0298508 0.164436 
2.163 4.3341 0.0974623 0.115125 
9.4334 6.6228 -0.209102 0.0365404 
4.6281 6.9573 -0.168586 -0.0478241 
7.2399 12.1926 -0.0185184 -0.173418 
4.8898 3.4789 0.0205674 -0.191848 
8.8512 10.7204 0.0721132 -0.0548129 
8.0037 13.9198 0.175724 -0.0834637 
4.728 11.9331 -0.0222112 -0.0521055 
0.5399 10.0581 0.0306423 0.0368224 
13.2242 2.5559 0.248271 -0.0618783 
13.7864 7.3699 0.0555788 -0.0405101 
13.7469 10.291 0.000704487 -0.109045 
7.5718 6.1712 -0.143957 0.112436 
12.2069 5.2092 -0.0930334 -0.124508 
8.3481 3.8355 -0.0373777 0.218233 
8.7253 11.4833 0.0871961 -0.1456 
7.0147 14.7985 -0.150001 -0.0254177 
8.6995 5.059 -0.184329 -0.308744 
1.2189 7.4999 -0.0173589 -0.0951472 
8.3879 2.8379 -0.0374708 -0.140112 
10.0414 4.4948 0.0446848 -0.130911 
1.7041 5.0868 0.0399842 -0.262148 
7.5174 1.3094 0.142127 -0.053376 
11.8848 8.4583 -0.0988832 0.108638 
3.0104 0.8118 -0.124704 -0.112149 
8.9897 7.2014 0.234556 -0.0767297 
9.7196 13.716 -0.303741 0.0271306 
6.9996 13.6993 0.0705071 0.503877 
13.3563 11.945 -0.126011 0.0902546 
3.2199 1.602 -0.0594103 -0.0748425 
3.3601 3.3848 0.0224492 -0.221343 
12.1542 10.5939 -0.150187 0.179328 
1.9169 13.6464 0.0808768 0.0914318 
10.2767 10.2453 -0.25042 -0.0357264 
1.6219 7.495 0.0375988 0.14729 
3.7599 6.3765 0.0114835 -0.282834 
6.1857 1.5273 0.0125415 -0.124053 
9.6801 14.7988 0.136799 -0.0682504 
6.1753 9.4883 0.00209965 -0.16087 
10.2247 2.4701 -0.0199285 -0.0387499 
8.2713 13.8515 0.170503 0.207374 
13.966 10.7342 -0.124902 -0.0891201 
8.6534 12.849 -0.152992 0.138362 
10.1608 3.2526 -0.0732998 -0.0692811 
13.034 9.5414 -0.100184 -0.0801251 
1.3073 3.2937 0.0240954 0.175801 
13.7842 13.1847 0.0891866 0.200851 
6.9151 14.4502 -0.00446232 0.232949 
12.7804 10.521 -0.382119 -0.0697132 
3.2303 3.7982 -0.0214614 0.00996471 
2.4805 6.5552 0.0387805 0.190921 
13.6494 12.2531 0.0504744 0.0236893 
0.982 10.7287 -0.159932 -0.058473 
3.9166 3.5326 0.0516448 0.200969 
6.8851 7.7289 0.0278825 0.145836 
4.6421 1.7448 0.0961396 -0.0283709 
5.3806 12.3275 -0.0647948 0.12531 
6.235 11.3427 0.0538982 -0.121531 
8.1212 11.4219 -0.116204 0.175995 
4.5885 2.0471 0.0578006 -0.181838 
9.5495 1.0253 -0.166506 0.00316965 
8.7071 2.6961 -0.197517 0.0627531 
6.833 13.5098 0.0111605 0.0792283 
12.3516 14.5129 0.0374009 0.0185616 
2.0203 9.2524 -0.0775848 0.125028 
2.0346 2.2058 0.242581 0.189762 
5.9059 14.5782 -0.320984 -0.188152 
1.9848 14.471 -0.0985896 0.140712 
0.6628 11.3417 -0.0488927 -0.127397 
13.9104 13.6182 0.0752256 0.115064 
10.78 14.4439 -0.142803 0.0820848 
9.5737 2.3932 -0.0997633 -0.0170251 
5.3924 2.8394 0.0376662 -0.0434304 
12.1972 4.5283 0.468161 -0.107957 
7.6928 5.1815 0.0646724 0.119826 
6.0922 1.9421 -0.122618 0.0765827 
6.4998 9.6005 -0.293057 0.0666489 
13.7524 12.5305 -0.302555 -0.0351649 
11.2283 11.8179 0.232283 0.0161179 
2.6473 6.7699 -0.262369 -0.174419 
1.3401 14.5465 -0.121104 -0.141297 
7.1846 7.8308 -0.14284 0.139268 
10.3691 9.1019 -0.151565 -0.293151 
9.1557 0.5249 -0.127618 -0.210428 
4.4493 1.4661 0.0399037 0.137885 
6.1972 10.1794 -0.0479193 -0.122671 
13.6867 1.7677 0.0640624 0.255321 
5.4609 9.6464 -0.370454 -0.0639031 
3.4454 12.6416 0.248282 -0.255062 
7.917 5.1403 0.0577416 -0.0752804 
9.598 2.9882 -0.128727 0.135701 
6.4389 5.8246 0.00345067 -0.100573 
1.9043 6.4536 -0.0938417 0.181887 
5.9434 2.3941 -0.151178 0.191221 
13.0814 8.773 0.0494061 -0.0897128 
6.1568 8.1642 -0.155975 0.122271 
10.6761 12.6956 -0.0125824 0.130533 
10.6113 14.2345 -0.0557007 0.136374 
7.8208 12.2247 0.107617 -0.0849643 
4.6379 11.3764 0.0719831 0.249701 
2.6339 13.9887 0.0739204 0.0176058 
9.6646 1.9662 -0.0866253 0.158004 
4.0161 1.8778 -0.231869 0.0753057 
3.8541 11.7333 -0.0571343 -0.0153271 
5.5815 2.2683 0.0943656 0.0577305 
2.052 10.9269 0.0512858 0.100098 
8.6628 7.3638 0.0321428 0.100824 
0.6562 3.3511 -0.0171139 -0.161781 
10.0381 13.4394 0.420804 -0.0872485 
8.5142 4.7872 0.0134649 0.338331 
7.227 8.4982 0.0644363 -0.118587 
10.0531 9.5842 -0.203454 0.0621149 
12.1303 8.1978 -0.181195 0.0281481 
13.0053 1.831 0.109062 -0.0940209 
0.5913 14.1243 0.103004 0.0365263 
9.8008 8.5791 0.0870126 0.257085 
10.5057 10.2967 0.424539 0.206329 
10.5369 1.01 -0.124304 9.83337e-05 
11.4676 4.3023 -0.116794 -0.0391503 
8.8449 6.2291 0.0173656 0.107492 
13.4418 0.8145 0.0780813 0.0278808 
4.9822 7.1247 -0.0302817 0.0593148 
2.9774 2.3848 -0.137095 0.207986 
11.3471 11.5133 -0.086889 0.14947 
7.4338 14.5309 0.178212 0.0978231 
8.0945 4.197 -0.0594642 -0.14311 
10.5538 5.4152 -0.0759709 0.191712 
4.0468 6.5483 -0.118359 -0.00153258 
7.0924 12.7241 0.123755 0.147539 
9.6487 3.3839 -0.268694 -0.0377461 
11.3145 6.8604 0.382813 -0.15995 
12.6558 13.7831 -0.292056 0.0366006 
3.2553 6.1027 0.274772 -0.0552781 
3.2622 3.0077 -0.099732 0.0067109 
1.9787 4.5436 -0.194613 0.251926 
11.5268 8.8743 0.0774078 -0.10266 
10.3113 5.2836 -0.134088 0.112233 
0.537 12.9202 -0.12874 0.0784827 
8.3229 6.8592 -0.173712 0.181376 
7.9703 14.5559 0.115644 -0.0175598 
12.7809 11.8451 0.31671 0.100533 
5.9367 2.8127 -0.0170973 -0.0836825 
10.1773 12.8837 0.094463 0.0619192 
9.6939 9.2105 -0.0855217 0.258817 
10.9795 4.3497 0.013949 -0.0603974 
3.5969 0.5195 0.124494 0.107039 
12.8066 4.5423 -0.102262 0.0389318 
12.9346 7.5021 0.0642671 0.136124 
5.2021 11.3544 -0.158346 0.108537 
13.6287 10.0644 -0.212704 0.107237 
5.6599 2.987 -0.251244 0.094219 
2.3837 11.0141 -0.109649 -0.0709142 
6.9214 8.0264 0.0526082 0.338192 
13.0289 14.5169 0.0105844 -0.00201977 
11.6186 0.6159 -0.0574119 0.146946 
12.0318 0.6477 0.0165742 -0.259584 
3.1179 11.1465 -0.190213 -0.00388274 
8.6065 2.2904 -0.0729464 0.0488377 
6.4279 6.829 0.0302723 0.199343 
3.5006 8.3078 0.222758 0.129709 
9.5682 12.2453 0.212892 0.0313724 
7.176 13.0616 -0.162832 -0.290339 
3.1955 9.4848 0.0899707 -0.0451971 
12.1938 3.8931 0.00335827 0.145803 
3.8609 9.7477 0.066824 0.00730082 
3.6159 14.3949 0.204931 0.00758401 
10.1113 2.9101 0.0689843 0.135289 
11.0241 13.2006 -0.0765104 -0.287368 
0.6323 10.3515 0.072904 -0.138691 
5.2051 12.1733 0.166126 0.0307756 
5.2312 5.4948 -0.136309 -0.115193 
5.9523 14.3719 -0.0314116 0.155116 
6.0622 11.7448 -0.22819 -0.120578 
5.7355 5.0368 0.163221 -0.0854119 
12.2002 11.7917 -0.149563 -0.0703986 
7.9087 1.7503 -0.0704631 -0.118498 
4.4603 12.3194 -0.106385 -0.124077 
10.7208 7.2949 -0.063744 0.0965163 
9.142 8.9828 -0.0567861 -0.153601 
6.9198 6.3022 -0.0286603 -0.0433623 
8.5905 14.2164 -0.0112905 -0.164186 
6.0691 13.4868 -0.0225942 0.019768 
0.9876 9.467 -0.249298 -0.0216682 
0.5264 3.6673 0.113007 -0.337871 
9.1671 13.3711 -0.00322779 -0.178422 
7.111 3.8593 0.240426 -0.0548284 
7.5834 6.8152 -0.0603709 0.0816736 
8.8904 1.6004 0.102434 0.19218 
9.8677 14.0916 -0.0409953 0.102269 
11.8649 7.9547 -0.15547 0.196428 
9.6855 11.7051 -0.237318 -0.0105267 
4.8521 12.3666 0.0587173 -0.276414 
7.4154 5.8695 -0.00722077 -0.0992331 
12.446 6.3127 0.388033 0.162689 
12.1457 6.829 -0.10487 0.134359 
0.9324 2.2341 -0.138833 0.0697663 
11.0695 10.8857 -0.030708 -0.119792 
4.5427 14.5064 0.0392516 0.0332493 
13.1294 10.1614 -0.170254 -0.0698167 
7.8083 8.6426 0.149419 0.0577331 
11.9996 2.1577 -0.0917775 -0.24039 
0.7236 3.5783 0.099872 0.0443623 
13.4164 4.3567 0.0456032 0.0248314 
1.0346 6.4606 -0.14342 -0.0253166 
7.6217 13.6911 0.128936 0.140172 
3.0928 2.651 0.0756665 -0.112266 
4.4515 7.3835 0.251103 0.0166264 
6.9009 3.794 0.0205597 -0.0834302 
9.0338 3.3073 -0.233265 0.326713 
11.2251 11.1496 0.200919 0.438829 
1.698 6.14 0.130762 0.282786 
0.6611 6.2262 0.00644566 0.056991 
6.2282 6.9291 -0.124602 0.0771689 
8.2189 2.9717 -0.0957126 0.121715 
6.8949 1.0855 -0.122158 0.0140956 
5.2038 14.1935 0.221364 -0.141679 
4.1631 6.2479 -0.108665 -0.406566 
7.1146 2.4459 0.0880346 0.204951 
5.904 0.537 0.165582 -0.160142 
7.6316 13.4825 -0.119223 -0.0561961 
13.275 13.8873 0.0996899 -0.0364658 
2.9033 5.5531 0.0302799 0.0375233 
6.8084 2.9744 -0.0527791 -0.0144884 
6.8697 4.2969 0.227834 -0.106504 
13.2743 13.0188 0.074544 0.432658 
10.3021 7.1833 -0.0618996 -0.0534514 
9.5333 7.924 -0.216396 0.268327 
4.4513 11.4692 0.0927457 0.204791 
1.7512 1.2947 0.0997148 -0.130499 
2.1995 6.8505 -0.0660245 0.334048 
6.2053 3.837 0.048528 -0.131027 
2.394 8.8452 0.131839 0.0421047 
10.8942 3.9608 -0.0183086 -0.103789 
9.1232 6.3921 0.111014 0.223709 
13.1001 2.0217 -0.185962 -0.275581 
10.7679 12.3291 0.266979 -0.0108623 
8.9473 4.7342 0.198706 -0.0252152 
5.4153 2.5172 0.0834379 -0.0741631 
0.7025 0.9777 0.315788 0.071189 
5.7241 11.9708 0.191555 0.0190833 
12.7748 4.161 -0.195952 0.220807 
1.5649 11.5981 -0.0122345 -0.0494559 
1.0583 3.1092 -0.302195 -0.25415 
7.6969 7.1208 0.0124316 -0.0769093 
3.7395 10.0218 -0.0435689 -0.215321 
4.6435 4.6246 0.252233 0.141948 
6.4704 11.4469 0.0952865 -0.131615 
10.4097 4.6783 -0.157023 0.025149 
11.7573 5.3113 0.0511377 0.17088 
9.3231 9.2926 -0.300781 -0.0242987 
3.0771 9.2962 -0.210831 -0.0593933 
4.9915 10.312 -0.215193 -0.342344 
11.8732 8.8 0.106087 0.01819 
9.981 12.811 0.0717378 0.313897 
11.5477 6.4312 -0.135799 0.0340196 
9.4316 3.6645 0.162496 -0.112767 
5.1505 7.5425 -0.0223611 0.203792 
4.3063 0.6019 0.110891 0.106366 
1.8619 13.3513 -0.207718 -0.0150798 
3.4426 8.8659 -0.0574152 -0.018546 
3.9383 3.8494 -0.112268 0.0256716 
9.4522 8.5338 0.13713 -0.213835 
11.7587 2.7537 -0.139805 0.00148003 
3.1569 1.9236 -0.316223 -0.00340532 
6.0436 8.5614 -0.0645676 0.133232 
12.1385 4.7651 0.13785 -0.0668595 
5.802 6.5164 -0.122105 0.10903 
9.1919 2.282 0.0921236 -0.0949443 
3.0848 7.0441 -0.0964596 0.0958446 
6.5017 13.9528 0.0887971 0.347674 
0.7937 4.0065 0.0118018 0.12853 
8.6097 11.8401 -0.110044 -0.172756 
11.1982 12.1201 -0.253649 -0.128461 
11.1947 7.2958 0.0133636 0.129103 
11.9084 3.6494 0.0438633 0.0766567 
9.9499 11.103 -0.00182464 0.190333 
12.5271 7.157 0.297606 0.0409587 
7.7202 12.898 -0.00363803 0.00681856 
2.0159 12.6945 -0.0784962 0.0353413 
7.8037 1.5699 -0.013616 0.14591 
3.2457 7.7874 -0.033306 -0.23982 
4.4653 2.9499 -0.116043 0.296808 
2.3453 2.684 0.0116549 -0.0261366 
8.5813 8.9899 -0.0400185 -0.0208961 
10.775 2.0992 -0.268861 0.0582089 
8.7442 13.2504 -0.0208813 0.0679065 
3.4799 5.1311 -0.183915 0.0442429 
4.3612 3.9255 0.105039 -0.0339661 
6.0111 11.501 -0.123691 -0.126352 
3.3992 0.964 -0.0898631 -0.139787 
2.2015 4.6643 -0.0472498 -0.129907 
4.7001 1.3413 0.316265 -0.0428445 
8.969 14.2453 -0.0818859 0.0444899 
8.6164 6.708 -0.153969 0.0870892 
5.485 5.6262 -0.335599 -0.154232 
5.8357 2.1255 -0.0262537 -0.245654 
7.9439 12.4861 0.00670219 -0.0532207 
5.3301 11.9381 -0.113519 -0.0087389 
8.534 3.4877 0.103534 -0.0204076 
13.7517 13.4574 0.146945 0.224406 
5.1289 14.7715 -0.0106375 -0.281603 
4.4488 9.0049 0.00683667 0.0556069 
12.3883 2.8602 -0.0408864 -0.106124 
4.466 14.0744 0.168759 0.0402797 
4.5988 5.6108 0.0349706 -0.0011748 
3.2247 9.9406 0.0339572 -0.0628587 
5.2955 5.8991 -0.0454867 -0.240821 
12.8503 3.0451 -0.0197147 -0.0197078 
4.8487 9.1894 0.0825161 -0.102905 
8.2389 8.7558 -0.0594444 -0.0425299 
10.5697 3.2409 -0.019613 0.0680123 
5.7249 6.3216 -0.0402678 -0.108046 
6.9146 12.4652 -0.10297 -0.104784 
3.0257 12.5711 0.0954723 0.314731 
13.0702 11.9664 -0.00511799 0.0974471 
13.4771 7.8542 -0.100486 0.299197 
11.6714 1.0356 0.117253 -0.215487 
1.1917 10.2672 0.059451 -0.0783861 
5.2457 4.0325 0.00675241 -0.0634943 
13.2094 9.1755 0.157973 0.0715123 
0.8357 12.9366 0.198737 0.0417626 
1.2649 6.1183 0.0283969 0.137501 
7.2735 8.1579 -0.209801 0.171903 
10.0244 5.6492 -0.0162261 -0.090046 
12.9719 14.7155 -0.216867 -0.157475 
3.2629 5.1655 -0.00132174 0.0867123 
1.0835 13.1225 -0.183335 -0.188576 
6.9544 3.471 -0.104288 -0.0302057 
10.7226 1.6528 0.235817 0.101007 
8.4191 9.1271 0.000361866 -0.302139 
1.4547 2.8757 -0.273284 -0.166956 
4.2321 11.4002 -0.185084 -0.131212 
6.18 9.1537 0.057042 0.129618 
7.9672 3.0356 0.0257727 -0.0107038 
11.7236 9.0522 -0.183085 -0.0748442 
2.371 8.0533 0.0661738 0.0287894 
4.0987 5.8022 0.0596712 0.0627856 
3.8535 12.7304 -0.0422188 0.0667636 
2.97 8.094 -0.0475268 0.109935 
6.4365 10.3835 -0.0822266 -0.0108581 
9.4473 3.9021 -0.16061 -0.32727 
2.8824 7.7172 -0.176716 -0.141366 
9.0301 8.42 0.176387 -0.11042 
6.8531 4.5252 -0.0251172 0.142303 
10.0226 10.7803 -0.258191 -0.042609 
8.23 1.4033 0.141222 0.241789 
10.754 2.9816 0.141858 -0.0799392 
6.43 0.9858 0.00798876 0.0455764 
7.3341 5.2626 0.202321 0.138798 
12.5997 12.4483 -0.11702 0.0814167 
0.5213 8.2896 0.00074347 -0.0067641 
5.2087 8.2975 0.147063 -0.06971 
7.2672 1.5206 0.13256 -0.112053 
13.3317 6.1935 -0.101785 -0.0474008 
2.2479 5.9863 -0.0515093 -0.0513224 
3.1022 10.8793 0.197568 0.0150391 
0.7657 11.123 -0.0607558 0.204791 
9.8141 2.2078 -0.1019 -0.13585 
0.5832 9.0182 0.0266701 -0.0648711 
1.063 5.7691 -0.0698698 0.222203 
11.6339 12.8942 -0.0147689 0.246958 
6.4077 8.8645 -0.000324412 -0.0409511 
13.2518 7.46 0.0290195 0.204872 
9.0571 9.7391 0.0612372 0.185259 
2.6386 8.7235 0.0760739 0.00170351 
3.6256 7.4108 -0.133724 -0.118054 
11.5845 5.6946 0.231567 0.0337062 
5.9582 7.9237 -0.0919525 -0.049267 
11.7672 1.6602 0.0785548 -0.134681 
7.9412 11.0963 -0.0948648 -0.0685128 
6.7156 0.6795 -0.257649 0.163687 
7.0785 10.1688 -0.164738 0.195036 
5.1162 9.8032 -0.0428637 0.0272102 
11.9884 12.6269 -0.00670952 -0.0955612 
4.7342 7.4358 0.315478 0.00649672 
5.5612 3.735 -0.126108 -0.0648224 
10.0004 5.9685 -0.166061 0.145153 
12.943 11.1289 0.149002 0.0775951 
12.4733 9.094 -0.00163971 -0.0380831 
4.7247 12.934 0.061446 0.128014 
1.4725 7.8594 -0.0770782 -0.376112 
0.719 7.1643 -0.117738 -0.0383346 
10.7822 4.7251 0.0471108 0.0025909 
13.2298 9.8103 0.0744662 0.174222 
1.2573 5.1293 -0.168076 -0.13347 
2.9615 4.8318 0.0914479 0.241572 
1.2909 11.8139 0.203488 -0.067731 
10.6784 4.3249 -0.00187955 -0.0095372 
4.3383 10.2435 0.161008 -0.00262306 
1.461 8.8434 0.173532 -0.0660976 
8.2574 4.615 -0.166066 0.410282 
4.0808 2.5978 0.0230533 0.00674445 
1.0798 7.0049 -0.315216 -0.223654 
5.4232 7.8312 -0.0911234 0.264822 
1.9946 10.3421 0.0363868 0.046324 
2.4747 14.6644 -0.11631 -0.130999 
10.681 13.0282 -0.0895352 0.0227496 
4.0174 1.2711 0.118696 0.0815148 
9.0009 7.924 -0.0106518 0.228621 
10.1656 13.8954 -0.0653951 0.0318905 
11.882 14.0695 0.338745 -0.153671 
9.6385 12.5961 -0.193483 0.0411966 
9.6958 5.2356 0.142816 -0.127382 
1.1797 14.0744 -0.00920347 0.014405 
2.671 8.31 0.125659 -0.0183483 
10.0807 11.8702 0.292427 -0.0554696 
8.8787 13.9319 -0.0248424 -0.354676 
0.7103 5.4663 -0.231317 -0.32266 
4.6382 10.5581 0.190525 0.116358 
13.5576 11.9948 0.209828 0.200916 
6.2439 2.5719 0.0117881 0.146603 
1.8649 5.3672 0.235534 0.0678618 
4.457 6.7063 -0.222726 -0.240835 
1.9602 3.6154 -0.0528593 -0.00777891 
5.3021 1.7919 0.0782736 0.350853 
9.6064 1.4262 0.107338 -0.271801 
12.9001 9.1185 -0.0721548 0.139035 
9.4788 4.8069 0.177326 -0.0989177 
11.7015 10.6288 -0.0508915 0.0285633 
8.2378 3.29 -0.0661016 -0.0204553 
3.7087 14.0867 0.151159 0.129242 
2.8276 8.443 -0.0207988 -0.182442 
5.0057 9.56 -0.20207 -0.109249 
13.7966 0.7766 -0.163762 -0.0256355 
13.4716 14.5841 0.0566406 0.106485 
2.0023 5.0945 0.03468 0.0544526 
0.7577 14.2543 0.0429124 -0.138207 
5.9701 6.0392 0.393373 -0.0495418 
2.75 3.9048 0.0101291 -0.000421125 
12.7283 5.821 -0.144986 -0.172466 
13.9655 3.3642 0.00888947 -0.0202719 
9.4413 3.2003 -0.122289 -0.163644 
13.6803 9.0477 0.0308657 0.00159546 
7.0736 6.1441 0.0273068 -0.048026 
10.1668 4.3084 0.0572492 -0.111623 
6.9726 10.9212 -0.0551292 0.0681984 
13.7511 12.0785 0.109342 -0.0738536 
5.0836 2.969 -0.147851 -0.157197 
1.2738 6.796 0.0457386 0.0734495 
0.6203 7.4989 -0.00429248 0.159144 
8.7238 0.7698 0.192189 0.0249382 
8.3471 5.2861 0.0664642 0.160445 
0.6485 9.7411 0.250163 -0.136733 
3.3659 11.861 0.16681 0.242553 
7.263 4.57 -0.0416052 0.23724 
11.3929 0.5961 0.156463 -0.133676 
10.4543 5.0202 0.307385 -0.244724 
3.8084 0.9225 0.00531975 -0.198249 
11.8161 6.1747 -0.108957 -0.012148 
1.8153 8.4589 0.0202706 -0.0570827 