ITEM: TIMESTEP
0
ITEM: NUMBER OF ATOMS
420
ITEM: BOX BOUNDS pp pp pp
0.0000000000000000e+00 2.8000000000000000e+01
0.0000000000000000e+00 1.5000000000000000e+01
-1.0000000000000000e+00 1.0000000000000000e+00
ITEM: ATOMS x y vx vy 
7.8383 13.2119 0.0262883 -0.00145473 
12.7643 9.2066 -0.0836177 -0.0408235 
12.5353 1.2435 -0.0911664 0.210242 
6.5487 1.0699 0.0309414 0.0989879 
9.3805 2.9206 -0.13932 -0.0775094 
1.2969 5.7595 -0.268983 0.00683348 
7.9033 3.5962 0.0471381 -0.0747613 
4.7101 5.0422 -0.138938 0.00880548 
3.819 11.7828 -0.0735819 0.0147066 
7.4016 8.6859 -0.0169302 0.425162 
9.4175 4.6774 -0.056923 -0.0881245 
13.878 14.2516 0.0565261 -0.0517938 
11.1261 8.9547 -0.0720157 -0.14812 
2.856 7.5646 -0.200158 -0.22383 
9.9213 9.2319 0.0024869 0.135289 
6.0347 0.8506 0.0298288 -0.167869 
1.62 12.525 -0.224012 0.0578341 
11.0272 3.7154 0.166767 0.0482675 
3.2578 13.3581 -0.219956 -0.189208 
10.7303 8.3651 -0.146044 -0.0481382 
6.6896 6.1424 0.0828884 -0.0440848 
6.2118 3.3853 -0.0772214 -0.0716397 
12.4688 13.7141 0.202285 -0.105555 
8.8514 4.7281 0.0392237 0.0628086 
1.1136 1.2158 0.0546807 -0.0497439 
13.7562 13.5875 0.0214678 0.0465259 
12.9009 1.6167 -0.0596474 0.0861751 
8.2077 11.3096 -0.056458 0.0364315 
4.9327 14.5626 -0.194208 0.00382405 
4.2548 7.67 -0.0188856 0.118405 
7.9594 6.7066 0.0895985 0.159635 
12.8352 4.822 -0.221625 -0.0974299 
4.3538 9.124 -0.0730569 -0.0563719 
6.6913 6.3778 0.0907958 0.125367 
12.7789 13.9726 0.218222 0.272691 
10.3442 11.6648 -0.022684 0.137252 
0.7117 10.7198 0.0351101 0.161546 
2.6689 9.1437 0.155289 -0.00579063 
1.1055 2.9063 0.0982397 -0.117267 
3.4216 3.0734 -0.14165 -0.308064 
7.9728 7.4074 -0.18068 -0.114636 
1.4388 1.8187 0.16188 0.221421 
13.2636 3.5509 -0.00586608 -0.0764741 
13.5367 11.5568 0.288515 0.0127635 
7.2101 13.9839 -0.203118 -0.17873 
9.8974 6.9431 0.20207 0.347161 
11.8319 2.1237 0.0698347 0.111275 
2.8216 5.2388 0.111977 -0.0357293 
5.3685 8.7386 0.0789796 0.332825 
3.3031 7.7783 0.211397 -0.205621 
11.0807 13.9159 0.134079 -0.257415 
9.6527 6.5469 -0.126648 0.124872 
7.0631 9.8287 -0.152283 0.148591 
2.969 4.4882 -0.317325 0.196872 
7.0328 6.4587 -0.0560997 -0.0815126 
3.0457 12.0598 0.253975 0.0976366 
10.066 12.3386 -0.0295963 -0.0601277 
2.9288 3.2439 -0.132079 -0.200407 
2.5736 4.7688 -0.0957733 -0.112847 
1.8406 1.9376 0.110914 -0.224102 
10.6363 2.407 -0.0947279 -0.118199 
10.1612 11.2154 0.0652436 -0.110352 
10.1256 2.0974 -0.0391005 0.195864 
6.2286 14.246 -0.271051 -0.0692582 
5.9663 11.4208 -0.0517631 0.123672 
0.9173 12.8918 -0.105225 0.0638834 
2.3094 7.1374 0.0513078 0.0525177 
12.8369 5.2941 0.117922 0.0683862 
11.8649 7.3106 0.263383 -0.212071 
13.2841 6.6264 0.019945 0.173246 
10.2054 13.3794 0.0562376 0.0926799 
8.3834 9.9831 -0.109337 0.0782709 
10.9168 14.6197 -0.0189499 -0.0179924 
3.5803 11.0892 0.0531562 -0.174441 
9.0666 1.6125 -0.0692372 -0.00580906 
9.6345 10.6374 0.0534401 0.0319259 
5.023 4.5612 0.165678 0.0523412 
13.9684 11.8775 0.062981 -0.0959931 
13.6759 12.1349 -0.0953246 0.127427 
12.179 8.2138 0.201601 -0.102241 
8.8564 12.5429 -0.160616 -0.359581 
3.4914 9.2447 0.137008 0.0110891 
11.9283 9.9355 -0.261138 -0.207402 
7.7692 14.6797 -0.0127355 -0.0626332 
6.1834 4.9054 0.101667 0.00329187 
3.0747 0.6486 0.102208 0.156228 
7.0132 4.4249 0.0106383 0.0338211 
13.8181 2.1159 -0.234686 0.123696 
7.3559 5.1967 -0.0119948 -0.0232487 
7.9605 0.9526 0.347727 0.163057 
9.2949 1.9115 -0.021441 -0.256381 
3.6629 4.3766 -0.204413 0.0817401 
9.6573 14.7745 0.25525 0.217442 
11.4384 14.6864 0.0324827 -0.283729 
4.4319 3.3003 -0.160466 -0.00337898 
7.5363 14.2297 0.15481 0.141134 
8.7267 13.845 0.242887 -0.156983 
1.7058 12.1238 -0.0193794 -0.101607 
1.9526 3.2024 0.193226 -0.0750347 
7.2709 1.041 0.0351644 0.120886 
13.9015 2.972 0.236167 -0.25147 
0.9824 7.3336 0.0481499 -0.161056 
3.835 0.5816 0.0393917 -0.0227225 
13.1417 10.8834 -0.127205 -0.0274419 
10.033 9.4451 -0.131637 0.0892662 
6.3621 3.107 -0.030661 0.0811868 
10.885 2.1516 0.0493748 -0.0891482 
11.2495 10.7166 0.00108365 -0.0545027 
9.2786 9.4425 0.180251 0.138291 
1.255 11.8101 -0.14167 -0.127209 
2.5802 12.9565 0.047615 -0.339019 
1.1666 13.1908 -0.110125 0.0946745 
3.8582 6.6499 0.106315 0.142258 
6.8433 1.546 0.0706258 -0.253462 
2.9066 8.8197 0.0440013 -0.203732 
6.7205 9.985 -0.0636519 -0.165874 
1.5229 7.9696 -0.0135984 0.270946 
13.528 6.1074 0.0821174 0.0365991 
13.2018 13.4874 0.147127 -0.0471958 
5.1841 3.0795 -0.15879 0.0847699 
8.0465 2.4827 0.0868032 -0.0661192 
7.0364 11.2661 -0.0189301 0.00979414 
12.3263 6.2233 -0.0400473 0.204756 
8.1657 9.5647 0.0668861 0.109217 
6.7008 9.17 0.0125134 0.110249 
9.4835 2.5526 0.201481 -0.176746 
2.6259 5.7651 0.0181875 -0.134963 
10.7523 9.013 -0.17028 -0.0482722 
6.1693 1.0372 -0.133095 0.0685982 
11.4149 9.9516 -0.0487809 0.0473276 
4.0494 5.7996 0.259868 -0.0165997 
13.6373 5.2809 0.0120931 0.274759 
9.6474 14.1585 0.0123051 0.0208198 
10.5386 13.3528 -0.0999298 -0.218911 
10.4812 7.8639 0.245588 -0.151733 
1.2027 6.3757 -0.0732515 0.043923 
7.0831 2.8747 0.19963 -0.0716273 
2.3591 13.516 -0.189874 -0.0585444 
0.5767 9.577 0.200162 -0.0297296 
8.3593 5.7695 -0.0860295 -0.167321 
0.7758 7.9784 -0.173181 0.000783528 
1.0865 13.8903 -0.177227 -0.193684 
8.4483 2.1751 -0.0271158 0.168516 
8.1728 6.0872 -0.19001 -0.0768877 
13.3018 4.4952 -0.0418855 -0.0968905 
10.3616 8.9618 0.0942312 0.196036 
7.6181 11.9739 -0.0582904 0.00356149 
6.5188 10.9886 -0.0649184 0.0686288 
13.4211 1.7202 0.0955091 -0.0369772 
6.3352 2.3608 0.1172 0.25275 
8.2487 3.4793 -0.0371776 -0.167632 
13.5015 2.5691 0.157541 0.294435 
5.7014 14.5681 -0.00321058 -0.0477468 
12.2812 5.5475 -0.315213 0.0237178 
12.3671 0.5813 -0.212878 -0.146043 
2.4632 2.3922 0.168652 -0.139507 
5.059 7.3774 -0.194503 0.193009 
8.183 14.1029 -0.104851 0.15522 
10.6033 0.6381 -0.102208 -0.10484 
8.3869 4.8103 0.367495 0.0673686 
6.5612 6.8418 0.171137 -0.173819 
11.4373 1.5987 0.111476 0.0418407 
13.6838 13.9085 0.289262 0.310858 
6.9033 13.4682 0.224983 0.0484459 
10.6196 12.2676 0.0151153 0.128406 
12.0029 11.2366 -0.00589359 -0.0148064 
2.3252 12.8723 0.0174901 -0.0127009 
9.3088 11.2366 -0.0179163 -0.0755307 
7.9429 10.0734 -0.0370276 0.0305331 
12.6267 3.0464 -0.0802915 0.0576676 
4.3514 7.9971 -0.0668266 0.0528768 
5.1808 1.8259 -0.141232 0.0100488 
13.5209 0.9153 -0.0478115 -0.287145 
8.0759 10.2519 0.0839012 0.101695 
3.7388 9.6048 -0.173442 0.158817 
11.6015 0.6902 0.09121 0.0803852 
12.5022 6.3647 0.231518 -0.102207 
1.8484 10.2749 0.187054 -0.0805832 
9.232 2.4929 -0.145596 0.0603477 
12.106 0.736 0.101211 0.0210028 
12.0487 4.8231 -0.181918 -0.0834941 
7.1474 8.1671 -0.0805592 0.39482 
2.3248 8.0894 -0.0484992 0.0361811 
11.4134 12.4636 0.0903276 0.241954 
5.6642 1.2452 0.033948 0.0405072 
5.9745 14.0856 -0.113126 0.241709 
11.8946 0.822 0.0112639 0.153291 
13.8273 3.6702 0.00887027 -0.0270096 
12.9506 1.3277 0.135061 -0.0178522 
23.6724 11.8168 -0.0325064 0.199423 
19.2397 13.5491 0.0646951 0.00799345 
14.5443 3.2927 -0.318544 -0.0116275 
20.5567 1.9086 -0.101044 0.0776708 
18.7665 11.9664 0.0152984 0.14556 
24.3504 14.1469 0.0263467 0.0195377 
27.7301 5.1729 0.163357 0.160794 
15.6488 10.7864 0.130336 0.0946394 
20.388 2.9715 -0.0606637 -0.243762 
26.704 8.1738 0.216261 -0.124906 
19.0581 7.8399 -0.00178496 -0.0162237 
26.574 5.476 -0.325126 -0.0156166 
26.7682 9.5193 -0.0293468 -0.338182 
15.7755 9.8209 0.106562 0.0829974 
25.485 2.2735 0.0144283 0.0271299 
22.0049 6.3015 0.124746 0.110383 
22.3348 10.8519 0.154234 0.0223144 
27.2487 6.4394 -0.0373221 -0.096279 
16.7321 7.0596 -0.266499 0.295283 
19.5451 14.4264 0.0208558 0.125762 
22.768 12.0502 0.110934 0.0433252 
26.9971 7.3884 0.0750337 -0.00328577 
22.826 14.2778 0.0274655 -0.0240655 
27.2753 6.7635 -0.0320421 -0.0607712 
15.9867 8.4751 -0.195919 0.0297143 
22.3808 11.3672 -0.155743 0.0667121 
19.0945 4.828 0.0952203 -0.464496 
21.1113 1.5265 -0.029447 0.134664 
24.9326 5.1329 0.404261 -0.043856 
19.4426 7.2776 0.138848 0.0101396 
15.2324 13.261 0.0887529 0.107817 
21.5164 1.2568 0.13961 -0.117274 
23.6559 7.3043 -0.0103235 0.231925 
19.86 4.9749 0.156579 -0.169549 
16.7323 10.8052 0.0371187 -0.0211187 
25.8167 11.8451 -0.017235 -0.18254 
14.6792 6.5395 0.187505 0.189751 
16.5289 12.2398 0.124289 -0.125458 
25.2374 5.4265 0.158242 0.139686 
23.5649 13.9858 -0.0570199 0.0967042 
15.5518 10.2868 -0.0853794 -0.0438922 
15.2561 2.5521 -0.197686 -0.113209 
18.8453 10.0922 0.135964 0.07581 
17.2735 14.4219 -0.158937 0.0328825 
16.3808 8.0798 0.0457019 -0.0640219 
27.4477 10.8635 0.083368 -0.185831 
16.1355 3.2096 0.156293 0.177641 
21.4769 5.8539 -0.079318 -0.115063 
25.3596 12.3904 -0.0895269 0.0305088 
20.9765 11.4182 0.16804 -0.156438 
16.122 6.3502 0.109515 -0.247238 
24.1841 9.5529 -0.0664808 -0.0708789 
25.1773 13.8424 0.0228596 -0.00756256 
15.7907 14.5636 -0.178625 0.0945724 
23.1297 5.3149 0.0892085 -0.0813827 
24.6522 5.4705 0.256236 0.0500278 
24.9431 4.548 -0.0695536 0.219063 
24.9951 4.8611 -0.110478 -0.0187767 
25.7646 4.4431 -0.0977023 -0.19537 
20.9993 12.3096 -0.0604163 0.137823 
23.4012 6.4482 0.153409 0.190277 
19.3494 2.198 -0.0853134 0.15839 
19.5666 2.8781 -0.154984 -0.0417315 
23.5509 13.7418 -0.0678961 0.0755048 
17.0891 8.5116 0.056471 0.248742 
20.3797 6.3821 -0.21036 -0.147958 
16.3212 0.7417 0.0832405 -0.00822845 
27.6625 1.6351 0.111239 -0.124082 
26.6352 1.4516 0.0356336 -0.0911937 
17.4408 2.2409 -0.0517352 0.195407 
20.4991 7.3784 0.172396 -0.106162 
14.9548 10.7536 0.00256412 0.146233 
16.692 13.2695 0.0208333 -0.0685197 
15.2179 6.4826 -0.0887321 -0.0183163 
18.604 5.3888 -0.370234 0.0359192 
16.3134 9.0488 -0.0464647 -0.0888762 
26.1313 7.7398 0.0798724 -0.0400174 
17.5214 6.6758 0.0155608 -0.148923 
25.1032 2.1716 -0.218662 0.151807 
22.8109 7.7536 -0.0177063 -0.125597 
18.3199 1.9067 -0.0300937 -0.043965 
18.1834 8.2484 -0.093669 -0.211791 
17.1785 9.4767 -0.162999 -0.192498 
23.3015 5.8783 -0.230667 -0.0228743 
19.0912 1.9418 -0.00549917 -0.0861382 
14.5557 14.0133 0.0751468 0.182909 
24.7493 13.024 -0.0582333 0.0848293 
24.6262 2.1835 0.130651 0.0598317 
25.434 10.0554 0.182081 -0.0659281 
21.5576 8.474 0.00486471 0.134086 
21.6094 5.6008 0.278753 0.00913669 
14.2979 6.8096 0.14668 -0.177433 
15.905 12.0251 0.177151 -0.260893 
17.2748 5.1626 0.107508 -0.0739236 
19.393 5.0876 0.0271393 0.0835842 
24.5783 13.3718 0.244118 -0.1867 
21.4569 12.102 0.0175131 -0.140763 
19.5897 3.4769 0.144946 0.359152 
24.8086 11.3034 -0.183091 0.263642 
24.6348 13.9664 -0.160041 -0.0132443 
22.9525 12.8207 -0.0351783 0.110495 
15.8062 8.9784 0.227958 0.179459 
16.4167 6.9511 -0.0468282 -0.365184 
21.0099 4.6755 0.132718 0.0559076 
21.1391 2.2907 0.0240437 0.0861272 
27.799 14.597 0.096348 -0.0763157 
23.1612 8.1996 0.00520782 0.210015 
24.1003 3.925 -0.125634 -0.0383792 
21.0112 8.3719 0.140871 -0.126533 
14.3153 12.6272 -0.192207 -0.0272513 
27.6207 9.3124 -0.0366856 -0.0566042 
16.4851 0.9039 -0.0801044 -0.0436677 
24.9209 13.6645 -0.0590922 -0.00807888 
17.8724 13.248 -0.0556785 0.078588 
25.0769 10.5378 0.120717 0.113556 
19.7447 13.6452 0.0522842 -0.114406 
16.4468 12.7917 -0.0361307 -0.175424 
26.3076 2.7995 -0.0865156 0.160396 
26.7203 10.7174 0.0453925 0.042459 
15.2584 9.875 -0.0347616 -0.135627 
20.3299 14.5187 -0.00674492 0.181293 
22.6786 10.3806 0.0596148 -0.119523 
21.142 10.331 -0.497587 -0.0600906 
23.0956 1.9032 -0.409972 0.00541094 
25.1392 13.0848 -0.104854 -0.0783242 
26.4969 9.4889 0.054525 -0.0767585 
19.9443 9.7234 -0.032919 -0.0609573 
15.7061 13.8371 -0.246779 0.260604 
27.7604 8.3306 -0.26394 -0.153365 
16.8557 3.2714 -0.221082 -0.17106 
15.5199 10.5766 -0.105441 0.202415 
24.6547 0.744 -0.200535 -0.19265 
24.9721 1.9284 0.136737 -0.185205 
19.5432 8.5219 0.11613 0.023407 
21.9411 2.6381 0.0460407 -0.13881 
18.2197 3.133 -0.0819492 -0.160449 
23.9077 2.1027 0.247881 -0.00128748 
23.1768 14.6722 0.0824724 -0.319625 
14.5759 1.1488 0.166225 -0.0851244 
15.5861 8.5857 0.0947657 -0.101559 
20.0393 5.6474 0.0753628 0.00330941 
15.0949 14.4999 0.068046 0.227364 
24.4921 14.5215 0.00602263 0.0516722 
18.452 3.8949 -0.1295 0.139338 
16.3884 9.2353 0.0664471 0.116024 
22.8995 6.3528 0.182706 0.0487101 
18.6996 9.5514 -0.166934 0.139993 
17.8584 8.2241 0.161718 -0.0573472 
18.9483 9.8631 0.0354154 0.323195 
21.5594 4.8739 -0.0358955 -0.121917 
16.4789 13.7014 -0.100186 0.273554 
19.7413 5.9172 -0.0661942 -0.0383929 
20.7013 7.159 -0.016611 -0.0219002 
20.9778 2.4806 -0.0481218 -0.0856428 
19.9875 1.7246 0.117636 0.159742 
18.6092 13.8674 -0.0488503 -0.0857054 
18.9025 14.6239 0.100321 0.107049 
22.0108 5.0349 -0.111321 -0.0891999 
17.435 12.4575 -0.148506 0.108034 
20.3335 12.1641 -0.244286 0.106275 
23.1821 4.6555 -0.0607406 0.0839157 
15.7772 12.5795 -0.0694789 -0.124055 
21.6744 7.9082 -0.0913792 -0.126755 
21.5906 0.7584 0.0837306 0.166167 
24.6194 1.3211 0.136775 0.0123766 
18.6034 14.7273 -0.0646261 0.025632 
14.0624 0.6395 0.104969 -0.177653 
21.2217 5.5848 0.1813 0.0855028 
15.4563 5.3088 0.0672616 -0.0405174 
20.9754 13.1207 0.0771921 0.0422768 
17.5816 2.4152 -0.00125506 -0.138036 
24.5617 2.9082 0.0634155 -0.0929568 
15.6678 8.0776 -0.127498 0.0200998 
15.799 2.8038 0.0902671 -0.121606 
14.4568 9.1247 -0.101353 0.0651286 
14.2219 1.093 -0.029396 0.0117887 
23.7253 1.897 -0.00829068 0.0349276 
18.0702 0.9349 0.220385 -0.112861 
25.7711 0.6986 -0.0552258 0.11658 
19.6469 2.511 0.0672227 0.155853 
20.4756 3.8294 -0.201157 0.154642 
17.7725 14.3399 -0.0382256 -0.0987919 
15.1224 13.5124 0.0775312 -0.0423838 
22.4407 8.2231 0.189684 0.119462 
17.7599 3.6892 0.184422 -0.0726598 
18.8394 13.5752 -0.00526924 0.0857922 
16.2194 11.1976 0.260441 -0.0742174 
16.8922 14.2244 -0.0779855 0.0944954 
21.2887 1.0802 0.219059 0.0773005 
16.8876 11.8186 0.257306 0.130024 
19.285 6.9605 -0.264949 0.0260581 
19.2863 10.5075 0.0806343 0.113074 
14.1915 10.4746 -0.152491 0.0064281 
20.7686 11.5951 -0.129653 0.0413012 
23.2832 4.3199 -0.13508 0.211664 
21.3143 4.5681 0.0277399 0.0761125 
20.1186 6.0396 0.162068 -0.193671 
22.7059 13.5505 -0.18268 -0.117275 
23.3011 5.0091 -0.226805 0.215384 
26.3157 1.0207 -0.0958983 0.0680664 
26.779 11.53 -0.0956062 0.0347353 
16.9051 5.1328 -0.00282088 0.0933859 
22.3664 6.8577 0.153458 -0.0430692 
23.1327 3.2084 0.0100875 0.0580543 
18.9583 8.7913 0.0128275 0.0317425 
17.7526 4.9048 -0.0345198 -0.335974 
20.515 14.0243 0.131097 0.137658 
22.6699 9.7612 -0.0550702 -0.0756224 
20.096 14.785 -0.0350446 -0.0389716 
16.1276 7.4816 0.0578899 -0.145689 
24.6931 1.0754 0.0158569 0.0979108 
16.717 4.7405 0.223696 -0.0422684 
21.0113 12.0292 -0.0657857 -0.339251 
14.9029 8.7027 0.13465 -0.0329819 
18.3382 7.7038 -0.330903 -0.138662 
25.9508 10.6143 0.208333 0.153188 
22.383 12.8345 -0.0588454 -0.0431666 
14.2129 1.8467 -0.165414 -0.00110205 
21.9202 12.1469 -0.0522383 -0.136161 
15.1163 3.9044 0.207945 -0.192516 
18.2948 8.8892 0.0162699 -0.0970387 
15.1858 11.252 -0.112886 0.245433 
18.5491 8.7241 0.0376783 -0.0316014 
19.047 5.6179 -0.0593073 -0.107506 
26.4608 3.0042 -0.0339152 -0.0769175 
14.2181 5.6384 -0.0962269 -0.20642 
19.1202 14.6846 -0.125485 -0.0292805 
19.3159 4.7068 -0.0306595 0.086833 
24.655 2.4041 -0.0384861 0.0607018 
18.0312 10.4546 -0.312233 0.0289842 
16.2824 8.5007 -0.186835 -0.00172609 
ITEM: TIMESTEP
5000
ITEM: NUMBER OF ATOMS
420
ITEM: BOX BOUNDS pp pp pp
0.0000000000000000e+00 2.8000000000000000e+01
0.0000000000000000e+00 1.5000000000000000e+01
-1.0000000000000000e+00 1.0000000000000000e+00
ITEM: ATOMS x y vx vy 
8.02987 13.2114 0.579082 0.0633292 
12.9273 9.18758 0.705008 -0.00656367 
12.6402 1.55049 -0.378684 2.30729 
6.93892 1.32175 -1.2704 0.429591 
10.2302 4.28204 1.82548 -0.0313724 
1.41444 5.55104 0.562502 -0.516417 
7.30596 3.70451 -0.383598 -1.43536 
4.75121 5.27266 0.55272 0.378857 
4.03081 11.8371 0.760576 0.119653 
7.43166 8.56729 -0.000925594 -1.07839 
10.0257 4.942 0.898188 3.44283 
0.57303 8.97361 1.92648 -1.30769 
12.3605 8.80233 1.85873 -0.122388 
2.94456 7.4227 0.669697 -0.298033 
8.90451 6.73317 -0.377877 -5.25843 
5.7277 1.056 0.223322 -0.590893 
0.937447 12.5833 -0.167782 0.0583437 
11.2875 3.7479 1.04626 0.11736 
4.3916 14.0578 2.27454 1.93858 
10.9836 8.44368 0.758081 0.165353 
6.77964 4.45249 0.216709 -0.990189 
5.45927 3.41768 -0.335135 -1.57514 
12.2021 13.1216 0.513518 -1.1581 
9.23868 4.41037 1.32387 -1.91841 
1.25441 0.883098 0.548608 -0.970622 
0.0581207 5.23492 1.31856 0.198545 
12.802 2.85613 -0.170075 0.0927329 
8.43022 12.786 0.336154 4.47868 
5.0082 14.3775 0.462432 -0.532993 
4.37355 6.95683 1.03073 -0.0982789 
8.43699 7.12632 0.9362 0.904834 
12.7378 4.44508 0.434136 2.35583 
4.32399 9.65989 -0.106827 2.28896 
6.65219 6.43 0.390432 -0.263826 
13.2099 14.7713 -0.261169 -0.551743 
10.5647 11.8941 0.301576 0.331695 
0.905926 10.7976 0.630784 0.106827 
2.49254 9.89519 0.546785 1.20084 
1.3205 2.84767 0.668294 -0.117267 
3.85055 2.76107 0.97523 -0.675778 
8.50984 8.38035 1.84882 3.57909 
1.13479 1.8513 0.0208341 0.332966 
13.2923 3.56304 0.402071 0.60825 
13.647 11.3501 0.670865 -0.16736 
6.93501 13.9604 -0.217431 0.0998848 
10.1161 7.41712 -0.248649 0.316648 
12.1345 2.34207 0.910826 0.672283 
3.31707 5.21978 1.09661 -0.0914832 
5.58489 8.91341 0.501624 0.537287 
4.00143 7.74898 2.06979 -0.594792 
11.3534 13.8894 0.63411 -0.0987656 
9.58767 6.09866 0.311364 -0.975435 
6.8753 9.61078 0.297361 0.642097 
3.21358 4.16813 0.438421 -0.765266 
7.58646 7.73998 0.292003 1.38291 
3.27342 12.1104 0.59496 -0.0721515 
9.9546 12.4639 0.136936 0.387069 
2.82293 3.32183 0.471106 0.373821 
2.17922 4.73448 -0.171112 -0.0817926 
2.40553 1.90003 0.78164 -0.524649 
10.6509 3.86077 0.655423 3.47336 
10.3858 11.1668 2.04347 1.8571 
10.5207 1.31005 1.04445 -2.15852 
7.35093 14.4898 1.31969 -1.93151 
6.06741 11.567 0.467742 0.386613 
0.20667 11.965 -1.32157 -2.26264 
2.26532 6.90375 0.0524876 -0.788693 
13.1749 5.91194 0.493905 1.28565 
12.1321 7.20456 0.729041 -0.212071 
13.7653 7.49765 0.00920485 1.83724 
9.32626 13.0415 -0.627402 -2.0957 
9.38277 10.2842 -0.186066 -0.676537 
10.7623 14.359 0.0568995 -0.601581 
3.76559 10.9378 0.600987 -0.318976 
8.79803 0.524762 -1.05157 -1.39195 
9.9974 10.5768 0.784814 -0.626098 
5.3507 4.36189 0.755142 -0.381401 
13.0346 1.17918 0.320108 1.69613 
13.2286 12.8251 -0.350185 -0.33425 
12.4365 8.13383 0.768422 -0.407379 
9.0586 12.3786 1.24429 -0.325775 
3.46365 8.79917 0.41976 -0.770224 
12.3897 9.80381 1.02733 -0.252928 
8.21341 14.4515 0.60298 -0.483084 
6.21553 4.89984 0.559135 2.37272 
3.24223 0.748317 0.537906 0.231046 
7.54075 4.33488 2.26758 0.708226 
13.83 8.47493 -1.72215 -0.886243 
7.54089 5.22237 0.46562 0.224457 
8.33827 1.03677 0.897392 0.415961 
9.79356 2.3159 0.747115 0.496513 
4.01375 4.40848 1.17405 0.0936992 
9.8725 14.4649 0.689363 -0.251848 
11.9718 14.1871 1.3418 -0.980783 
4.52844 3.31376 0.479275 0.0583646 
7.67509 13.8976 0.388156 -1.1815 
9.10922 13.6787 0.896712 -0.201397 
2.2497 11.3163 1.16912 -1.6785 
2.15533 3.15805 0.398491 -0.13998 
7.74393 0.624681 1.16437 -2.34633 
13.6946 14.6685 -0.249261 -1.10765 
1.19284 7.18207 0.597012 -0.0149099 
4.08013 0.605194 0.778495 0.111683 
13.2276 10.7536 0.34422 -0.566075 
11.2988 11.9865 2.71637 4.66565 
7.0462 2.3389 1.18074 -1.16972 
10.9338 2.47509 -0.336454 2.24208 
11.4703 10.743 0.783939 0.0907113 
9.46125 9.55803 0.569199 0.303916 
1.0995 11.5207 0.145348 -0.588968 
3.29336 12.7533 0.756995 -0.731523 
1.88816 13.7381 1.01751 0.945096 
3.80988 6.04839 -0.538568 -2.24312 
7.79158 2.53481 0.797733 -0.200821 
3.30358 7.90287 0.252006 -1.34411 
6.10784 10.4211 -0.614856 0.505933 
1.71088 8.10808 0.589127 0.269167 
13.8176 6.01734 1.0567 0.145217 
13.2328 13.3771 0.263737 1.41076 
5.31687 3.04906 -0.613276 -2.2965 
8.44098 3.33344 2.7592 3.55233 
7.38039 11.3919 0.820541 0.185429 
10.6957 4.77774 -1.57337 -2.75407 
8.82634 9.07216 2.40961 -0.944835 
6.06938 8.806 -0.615634 3.70328 
10.3854 2.68634 1.13453 0.673897 
2.69512 6.10416 0.443554 0.839915 
11.0557 9.33832 0.773176 0.644397 
6.16409 1.32729 0.707949 -1.68232 
11.23 9.94716 0.168796 0.0978278 
4.32883 5.77068 1.0244 -0.291831 
13.7627 5.22417 0.522912 -0.472991 
9.89485 13.7 1.05097 -0.805122 
11.6546 13.0766 1.14507 0.178937 
10.8642 7.61545 1.7661 0.0311283 
1.35325 6.5693 0.664295 0.141842 
7.50439 3.22753 0.611316 1.92307 
2.48999 13.6512 1.03736 0.330474 
0.866965 9.60603 1.01364 0.393961 
8.91753 5.05027 0.702928 0.0366313 
0.836908 8.08092 0.419302 0.25796 
1.05376 14.2128 0.191297 1.00512 
7.43332 1.16207 0.00604674 -1.7539 
7.97053 6.1907 0.171697 -0.452483 
13.6991 4.26391 0.826586 -0.314778 
9.74577 8.8899 -0.34191 -0.286353 
7.74654 12.0096 0.481157 0.208588 
6.60099 10.8767 0.75225 0.0433558 
13.3842 1.70049 -0.396352 0.703126 
6.35787 2.40583 0.422773 2.1442 
9.24991 3.00162 1.6614 -0.977162 
13.5318 2.99248 1.20949 0.63305 
5.85394 14.2165 0.682706 -1.17451 
12.4407 5.24998 0.752096 -0.374533 
13.2786 0.351191 0.331033 -0.332361 
2.95376 2.62021 1.36775 0.817233 
5.18876 7.47179 0.570976 0.188439 
8.61162 13.9795 1.41354 -1.00977 
9.20271 0.388975 -0.786119 -1.4761 
8.03892 4.78862 -0.128022 -0.404325 
6.14465 7.97908 -0.405996 -3.26006 
11.7564 1.71117 1.00548 0.284214 
13.7459 14.0249 0.637937 -0.486516 
6.93276 12.6851 0.348695 -2.02926 
11.0568 12.5572 0.685943 0.871148 
12.1854 11.2295 0.640113 -0.00738045 
2.14837 12.9527 0.791729 0.458812 
9.42227 11.3259 0.494524 0.281746 
8.09678 9.09517 1.03153 -0.394787 
12.4392 4.13087 -0.623777 1.23628 
4.98998 8.91795 1.35147 0.634164 
5.13515 2.29217 -1.48256 4.58339 
13.9356 0.372328 0.718331 -0.514438 
8.6098 11.0699 1.00605 0.0999045 
4.21081 10.3534 1.00686 1.65458 
11.017 0.911525 0.720939 0.518654 
13.0223 7.65319 0.301356 2.37174 
2.06995 10.2597 0.29999 0.359057 
9.08963 2.19334 0.778764 -0.185363 
12.2051 0.346834 1.54981 -0.724585 
12.0523 4.64606 0.0175845 -0.628272 
7.18356 8.08075 -0.236147 -0.401826 
2.48866 8.17253 0.633684 0.256216 
11.7552 12.482 1.43708 -0.974413 
5.56091 1.88122 1.30275 1.73512 
5.04939 12.8685 -0.714112 -2.53991 
11.9172 0.66079 -0.178834 1.15696 
0.0134007 14.326 0.667465 -0.71686 
24.0109 10.7384 1.31254 -5.62506 
19.8155 12.7319 0.725026 -1.58168 
14.8508 3.38713 1.13189 0.31848 
20.647 2.24869 1.09657 -1.12076 
19.0709 12.1016 1.11356 0.411025 
23.6656 13.629 1.1018 -3.62721 
14.0464 2.35668 0.743892 -0.0281748 
16.2423 10.82 2.22628 -2.82577 
20.4316 3.25019 0.982489 0.949251 
26.9904 8.49954 0.807794 1.73324 
19.3603 7.36948 1.19454 -2.89718 
26.6085 5.46177 0.317038 -0.0134233 
27.6563 9.93915 0.862908 1.14176 
16.2761 10.0588 0.300083 2.79932 
25.8013 1.93703 2.13474 1.72933 
22.5161 6.13986 0.929201 -0.377008 
22.4117 10.7716 0.522312 0.114968 
27.3329 5.22921 -0.292117 3.17622 
17.9681 7.54777 0.824317 0.840125 
19.9293 13.7506 0.79385 -1.64482 
23.212 12.0461 1.13159 -0.235863 
26.8464 7.72308 0.469972 0.0403332 
22.5789 14.0398 -1.71402 -0.481911 
27.9975 7.72558 1.64109 1.20634 
15.9696 7.69272 0.635098 -1.30068 
22.5096 11.6255 0.525811 -0.165981 
18.4883 4.99583 0.417572 1.84704 
21.1383 1.55343 0.676078 -0.403669 
25.1109 5.65651 0.648078 0.870014 
19.8318 8.0523 0.860642 1.09248 
15.2449 12.5563 -0.372695 -0.403686 
23.3379 1.18855 2.7235 -1.95105 
23.7622 7.74505 -0.368465 3.54783 
19.6644 4.82903 -1.22515 -0.241772 
17.2426 11.4052 1.53691 -0.763243 
26.0468 11.6703 0.786863 -0.480546 
14.8467 6.21518 0.389774 -0.669652 
16.8911 12.6806 -0.771271 -2.37163 
25.9472 7.255 1.20964 3.59673 
23.7292 14.2465 -1.00035 -3.00263 
15.4049 10.0346 -0.201284 0.30491 
15.1628 2.37207 0.15489 -0.426653 
18.1131 12.9775 -0.184685 3.5192 
17.3166 14.5111 1.167 -1.66354 
17.2161 5.74157 1.95926 -5.2611 
27.7211 10.7849 0.843863 -0.13497 
16.3838 3.53109 0.483199 -1.35197 
21.9114 6.49474 -0.26269 0.489458 
25.4872 12.1893 0.467529 -0.92186 
22.2951 9.57771 1.6242 -3.79806 
16.2354 5.7903 -0.766443 -0.561236 
24.347 9.51746 0.607703 -0.0708789 
26.3736 14.679 0.0974809 -2.43702 
16.0654 14.4336 0.95955 -0.183722 
23.1717 5.87765 2.11242 0.262323 
24.5584 7.0012 2.45083 1.57125 
25.5471 3.85698 2.09672 2.09747 
25.4851 4.6297 0.912927 1.88891 
26.1332 4.31601 1.60562 -0.311818 
20.7642 12.7678 1.4466 -2.46917 
23.9781 7.26218 0.300837 1.67392 
19.3468 1.5976 -0.0656406 -1.31249 
19.2735 2.7653 -0.483329 -1.85352 
23.7868 12.1471 1.00104 0.228044 
17.1479 8.97129 0.377267 1.1972 
20.5675 7.45826 0.354873 0.0206133 
15.984 1.28484 2.16472 1.48441 
27.8816 1.57306 0.673076 -0.124082 
27.0197 1.76811 0.897254 0.641946 
17.6389 3.08711 -0.0562506 1.56664 
20.6962 7.86236 0.494574 0.469996 
14.7607 10.7402 0.492132 -0.130455 
17.1288 13.0298 1.96576 1.63884 
15.5601 6.04656 0.271572 -1.97411 
18.3444 5.45 -0.376063 0.139167 
16.5359 9.57136 -0.183507 -0.289949 
26.2076 7.67741 0.0793135 0.130773 
17.7731 6.524 0.569587 -0.195967 
24.8403 2.26037 -0.623732 -0.662584 
23.0583 7.3998 1.42476 -0.165075 
18.391 1.94605 0.429608 0.143646 
18.4298 7.56991 1.14498 -0.849465 
17.2286 9.9057 1.22231 2.40787 
23.5876 6.68904 1.73216 1.78334 
18.8445 0.577578 1.01532 -2.88392 
14.5319 13.8475 1.34159 -3.09742 
24.6477 11.7101 -0.351636 -0.159758 
23.7051 2.53383 -0.723106 1.18345 
25.7353 9.88624 0.788499 -0.256506 
21.9414 8.89095 0.835617 0.992484 
22.3122 5.60605 -0.700959 -0.894265 
15.0058 7.39725 2.46633 1.84457 
16.2418 11.6759 1.00379 -0.908251 
17.8966 6.01733 0.22016 2.17311 
20.0509 5.99383 1.10637 1.4752 
23.8814 13.0012 -0.565423 -0.821105 
21.7362 11.4634 0.726444 -1.37769 
19.3687 4.07656 0.784931 1.63331 
24.9555 11.1802 0.988932 -2.68145 
24.6833 13.6501 1.06741 -2.55482 
23.1241 12.8188 0.664284 -0.117366 
16.0107 8.51937 0.883997 -0.559017 
15.9493 6.89167 0.740962 -0.0768115 
20.8771 4.31454 1.82002 0.0617312 
22.3081 1.8966 1.48751 0.19109 
14.008 12.493 0.3554 -1.06196 
23.5049 8.51741 0.87613 0.698285 
23.9311 4.35628 -1.06445 2.52015 
21.0825 8.30332 1.33123 0.656318 
14.8385 11.8998 1.10613 -2.24455 
14.1911 3.85121 1.01634 0.366252 
16.682 0.528784 0.109644 5.61545 
25.5416 12.7749 1.07637 -1.36018 
18.0274 13.3199 0.0922098 2.41659 
25.2215 10.7334 0.736714 0.0815227 
20.5082 13.2103 0.0927447 -0.184554 
16.488 13.2568 0.35949 2.00143 
27.4163 2.4172 2.78514 0.00835858 
26.9205 10.6956 0.699689 -0.104243 
14.73 8.30384 -1.08862 -2.35799 
21.208 14.5172 2.54591 -0.0265945 
23.1183 10.2623 1.14456 -0.246515 
21.1181 10.2366 0.31886 -0.25836 
23.0059 2.12161 -0.39985 -2.6262 
26.4484 12.7337 2.47409 -0.789312 
25.1745 9.03993 -1.18494 -1.09351 
20.2944 9.80134 1.2557 1.25957 
15.6367 13.8087 0.0118311 -0.685442 
27.8594 8.27794 0.474247 0.320587 
17.0992 3.17632 0.397828 -0.0839892 
15.5061 11.0021 -0.702392 0.381924 
24.6981 0.716822 -0.135637 0.586825 
25.5948 1.54778 0.944172 -0.520411 
20.3593 9.34338 2.02666 3.21553 
22.1464 2.6061 0.645514 0.109763 
18.9216 3.77396 -1.78222 -0.0895988 
24.2768 2.76704 0.562927 -2.4312 
23.163 14.072 -0.196322 -1.18288 
15.6314 1.63237 0.108408 3.5763 
15.3801 8.00375 1.10568 -2.37588 
20.056 5.52969 0.582616 2.45338 
15.3352 14.6386 0.794623 -1.51199 
24.3967 14.3996 1.5718 -0.184149 
19.0831 4.55445 2.18184 1.01247 
17.5257 10.6412 1.44542 0.339157 
23.1306 6.45154 1.90397 0.57349 
19.0123 9.28191 0.579094 1.25547 
17.3408 7.7903 1.08703 -0.684683 
19.7436 9.27779 0.750886 0.0139641 
21.952 4.69579 0.71101 -0.47285 
16.3197 13.6546 1.00735 0.445337 
19.4399 5.8983 0.259025 -0.833777 
21.3814 7.50152 0.452139 2.25396 
21.1023 3.18314 1.29397 0.710555 
20.0967 1.56229 0.756707 -0.59638 
17.9548 14.0585 -0.210739 -1.72549 
19.101 13.6761 0.712666 -2.0691 
23.457 4.56572 2.14267 -0.378055 
17.566 12.6203 0.147543 1.5821 
20.1943 12.3629 0.173615 0.12772 
23.2416 3.624 0.671283 -3.27746 
15.9123 12.9197 -0.613107 1.93378 
21.8947 7.59998 1.44899 -0.327735 
21.6782 0.733208 0.326889 2.81237 
23.808 0.523945 0.31075 3.87543 
17.9639 14.6413 0.414169 -0.891738 
14.7014 0.480901 2.71801 1.00813 
21.1454 5.21416 1.73199 -0.152373 
15.6608 5.28737 0.637512 -0.0804733 
21.7587 12.9923 2.09861 -1.72369 
18.2107 3.31341 2.85134 2.74408 
24.5763 4.04525 1.61388 2.31142 
15.2748 6.81679 -0.595379 -2.87473 
16.0468 2.52049 0.814567 -0.598485 
14.2891 9.66089 -0.119092 1.70141 
14.812 11.3022 1.11085 -1.19582 
23.1424 0.136976 0.0011565 -0.186757 
18.1748 0.844549 -0.366606 -0.250294 
25.7883 0.541997 0.723973 -0.922725 
20.5193 2.71276 1.08715 0.226792 
20.6364 3.72249 0.519518 -1.59061 
17.3398 13.5545 0.891057 0.628607 
15.1418 14.0891 0.0420227 -0.129551 
22.5716 8.46253 0.607284 0.482455 
17.8744 3.76641 0.337238 0.685484 
18.727 12.9547 0.488066 -1.32745 
16.8296 12.2205 0.318196 1.77226 
16.7675 14.4218 -0.544864 0.21891 
20.4955 0.335208 -0.614887 -0.365538 
17.8413 12.1716 2.94105 1.35428 
18.7766 7.10614 0.247499 2.35593 
19.5842 10.6432 -0.435757 -0.185278 
14.1579 10.3794 -0.21581 -0.527011 
20.069 10.7459 0.698414 -1.64986 
23.8626 3.15401 0.717201 -0.53454 
21.5899 3.44367 0.895738 -2.35122 
20.7324 6.32164 2.21904 1.27913 
22.8097 13.3961 0.540769 -0.524755 
23.881 5.67334 1.31208 1.39242 
26.5168 0.849911 0.867276 -0.303395 
26.9341 11.5842 0.6001 0.158495 
16.7714 5.6091 0.929987 -0.266166 
22.4919 7.14253 -0.246453 0.455473 
23.1425 2.58538 0.650715 1.25857 
19.6656 8.7157 0.672265 -1.06155 
17.2526 4.22086 -1.60925 -1.60394 
20.9909 13.7027 1.00017 -1.55562 
22.8267 9.40684 0.821108 -1.05763 
20.5557 14.6507 -0.0451935 -3.32226 
16.2064 7.32206 1.00388 -1.85192 
25.3912 0.985409 0.805714 -0.587069 
16.3721 4.03825 0.0130464 0.594983 
20.9604 12.1905 0.5929 0.432436 
14.1406 1.32715 1.05659 -0.0657381 
18.2464 6.75664 -0.673778 -3.50044 
26.1554 10.7178 0.511259 0.223473 
22.2862 12.9503 0.236384 0.663007 
14.7953 1.58198 1.42402 -0.41748 
22.5251 12.3419 0.729125 0.659361 
15.387 3.83307 0.841478 -0.0394975 
17.8634 9.72571 1.33482 1.05317 
15.3477 11.8329 1.45741 1.29246 
19.0091 8.22796 0.48542 0.246556 
18.9075 5.59681 0.701051 -0.253894 
27.6199 4.6257 2.23438 -2.46415 
14.5225 5.60005 0.933756 -0.126833 
19.5125 14.1616 0.00627024 -1.18697 
19.9578 4.07835 1.547 -0.874147 
25.3759 3.41231 0.859296 -1.17344 