# LAMMPS data file for rigid bodies

3080 atoms

2 atom types

0.0 	 28.0 	 xlo xhi 
0.0 	 22.0 	 ylo yhi 
-1.0 	 1.0 	 zlo zhi 

Atoms

1 1 0.48 70.00 19.3983 11.9588 0 
2 1 0.50 70.00 1.5673 10.9356 0 
3 1 0.44 70.00 11.9350 16.8512 0 
4 1 0.48 70.00 23.3702 9.2799 0 
5 1 0.42 70.00 19.8421 11.6393 0 
6 1 0.52 70.00 15.5968 15.9792 0 
7 1 0.54 70.00 7.8768 8.7513 0 
8 1 0.48 70.00 12.2414 20.4993 0 
9 1 0.43 70.00 17.4454 1.4866 0 
10 1 0.44 70.00 19.0903 21.1351 0 
11 1 0.51 70.00 10.8903 8.0447 0 
12 1 0.41 70.00 11.6203 14.2908 0 
13 1 0.46 70.00 5.5231 3.8814 0 
14 1 0.47 70.00 3.6134 18.3878 0 
15 1 0.48 70.00 20.8965 2.0007 0 
16 1 0.46 70.00 12.9673 12.8764 0 
17 1 0.45 70.00 1.3949 18.6990 0 
18 1 0.46 70.00 4.6854 10.8070 0 
19 1 0.48 70.00 11.6533 7.6088 0 
20 1 0.45 70.00 22.2025 4.3666 0 
21 1 0.45 70.00 13.4796 11.4026 0 
22 1 0.51 70.00 0.5341 17.1018 0 
23 1 0.42 70.00 23.5212 12.8745 0 
24 1 0.52 70.00 23.8272 9.7133 0 
25 1 0.46 70.00 27.4276 17.8021 0 
26 1 0.49 70.00 15.4877 9.6861 0 
27 1 0.49 70.00 9.1484 1.0541 0 
28 1 0.45 70.00 6.9483 8.6954 0 
29 1 0.54 70.00 1.3594 13.4406 0 
30 1 0.44 70.00 12.3869 15.8398 0 
31 1 0.46 70.00 5.9067 9.5413 0 
32 1 0.47 70.00 3.0438 2.9331 0 
33 1 0.50 70.00 17.6493 12.4094 0 
34 1 0.52 70.00 8.1935 18.7428 0 
35 1 0.43 70.00 3.5055 0.6009 0 
36 1 0.49 70.00 1.0745 14.8487 0 
37 1 0.47 70.00 6.6377 6.9752 0 
38 1 0.48 70.00 5.3912 2.0316 0 
39 1 0.43 70.00 4.7801 19.2301 0 
40 1 0.52 70.00 4.0907 15.1760 0 
41 1 0.40 70.00 26.6202 15.8647 0 
42 1 0.41 70.00 16.2664 12.1802 0 
43 1 0.44 70.00 23.9565 21.2712 0 
44 1 0.50 70.00 27.7413 3.1624 0 
45 1 0.53 70.00 19.7091 20.2814 0 
46 1 0.46 70.00 25.0246 6.3308 0 
47 1 0.45 70.00 4.0273 8.5386 0 
48 1 0.48 70.00 14.0755 10.2823 0 
49 1 0.47 70.00 17.2164 9.2658 0 
50 1 0.47 70.00 7.9519 6.1875 0 
51 1 0.46 70.00 6.7880 10.7144 0 
52 1 0.43 70.00 7.4398 2.7451 0 
53 1 0.51 70.00 8.2243 18.0186 0 
54 1 0.53 70.00 1.6500 9.3507 0 
55 1 0.43 70.00 1.1115 4.3926 0 
56 1 0.43 70.00 7.0377 7.6191 0 
57 1 0.52 70.00 3.2967 17.2294 0 
58 1 0.45 70.00 9.3294 6.8425 0 
59 1 0.42 70.00 20.9609 0.9431 0 
60 1 0.47 70.00 3.3804 21.3759 0 
61 1 0.47 70.00 5.8707 16.8584 0 
62 1 0.48 70.00 24.8308 13.6027 0 
63 1 0.51 70.00 18.6918 18.8335 0 
64 1 0.42 70.00 5.5605 19.5226 0 
65 1 0.52 70.00 9.2315 11.2927 0 
66 1 0.48 70.00 18.0897 5.2759 0 
67 1 0.46 70.00 20.0696 9.0702 0 
68 1 0.49 70.00 18.9359 7.0132 0 
69 1 0.46 70.00 22.8336 14.5423 0 
70 1 0.43 70.00 11.4487 9.1483 0 
71 1 0.45 70.00 23.6215 6.0201 0 
72 1 0.50 70.00 26.6445 10.2447 0 
73 1 0.52 70.00 24.6764 1.4406 0 
74 1 0.52 70.00 25.3206 16.0756 0 
75 1 0.51 70.00 10.7292 7.3910 0 
76 1 0.40 70.00 20.9687 13.4005 0 
77 1 0.47 70.00 4.4245 14.8815 0 
78 1 0.52 70.00 18.8619 14.7922 0 
79 1 0.47 70.00 12.8289 16.4786 0 
80 1 0.50 70.00 4.2074 11.1649 0 
81 1 0.47 70.00 4.0170 19.2335 0 
82 1 0.46 70.00 5.7835 8.2225 0 
83 1 0.51 70.00 18.9796 16.8131 0 
84 1 0.47 70.00 16.6515 5.8522 0 
85 1 0.47 70.00 11.9944 6.3786 0 
86 1 0.43 70.00 21.8765 15.2559 0 
87 1 0.45 70.00 7.4216 19.6140 0 
88 1 0.42 70.00 9.3659 12.6702 0 
89 1 0.48 70.00 24.2447 3.3375 0 
90 1 0.52 70.00 27.2046 15.5683 0 
91 1 0.53 70.00 23.8992 2.6459 0 
92 1 0.49 70.00 9.4361 4.4293 0 
93 1 0.48 70.00 11.5543 8.0660 0 
94 1 0.46 70.00 12.8634 6.1903 0 
95 1 0.50 70.00 13.2488 15.7153 0 
96 1 0.52 70.00 15.3642 2.3123 0 
97 1 0.43 70.00 4.3791 2.0535 0 
98 1 0.44 70.00 18.9294 20.8919 0 
99 1 0.50 70.00 9.6431 9.9453 0 
100 1 0.41 70.00 10.8083 10.6671 0 
101 1 0.46 70.00 5.2061 11.1908 0 
102 1 0.50 70.00 8.9561 11.3211 0 
103 1 0.45 70.00 19.0929 11.0493 0 
104 1 0.48 70.00 2.2620 3.1319 0 
105 1 0.50 70.00 16.1706 14.9428 0 
106 1 0.50 70.00 17.0346 11.0642 0 
107 1 0.46 70.00 19.7105 12.7836 0 
108 1 0.46 70.00 25.2406 10.8362 0 
109 1 0.42 70.00 5.3063 18.1711 0 
110 1 0.44 70.00 19.0416 18.2537 0 
111 1 0.53 70.00 27.2676 3.1947 0 
112 1 0.41 70.00 12.5678 10.1011 0 
113 1 0.47 70.00 7.2677 18.0809 0 
114 1 0.50 70.00 0.9189 16.2909 0 
115 1 0.46 70.00 19.3648 21.0086 0 
116 1 0.48 70.00 27.4749 5.7077 0 
117 1 0.50 70.00 25.0781 20.1587 0 
118 1 0.53 70.00 6.1392 7.5140 0 
119 1 0.43 70.00 27.2654 4.2275 0 
120 1 0.49 70.00 8.8525 12.2486 0 
121 1 0.43 70.00 2.2082 18.1131 0 
122 1 0.45 70.00 6.7680 19.6430 0 
123 1 0.45 70.00 21.8352 15.5402 0 
124 1 0.48 70.00 17.6420 12.1852 0 
125 1 0.46 70.00 14.0528 0.9585 0 
126 1 0.51 70.00 5.9140 0.7288 0 
127 1 0.54 70.00 11.0357 17.3005 0 
128 1 0.50 70.00 15.8437 8.1889 0 
129 1 0.49 70.00 8.3908 13.6522 0 
130 1 0.47 70.00 11.3788 2.5443 0 
131 1 0.46 70.00 15.5223 19.0684 0 
132 1 0.45 70.00 9.8436 2.1020 0 
133 1 0.48 70.00 8.1274 7.2507 0 
134 1 0.43 70.00 8.5205 15.5332 0 
135 1 0.50 70.00 21.4088 2.0006 0 
136 1 0.47 70.00 5.0864 4.5688 0 
137 1 0.47 70.00 17.7541 8.4885 0 
138 1 0.49 70.00 6.3931 11.2152 0 
139 1 0.44 70.00 15.6484 6.7355 0 
140 1 0.47 70.00 16.6069 12.5863 0 
141 1 0.47 70.00 6.2351 16.6774 0 
142 1 0.47 70.00 20.7529 10.7977 0 
143 1 0.43 70.00 0.7712 14.4164 0 
144 1 0.44 70.00 3.8708 11.4660 0 
145 1 0.41 70.00 13.6417 5.5508 0 
146 1 0.47 70.00 26.1522 16.8722 0 
147 1 0.49 70.00 11.8924 19.6272 0 
148 1 0.45 70.00 18.4606 8.0340 0 
149 1 0.46 70.00 20.3932 2.8498 0 
150 1 0.45 70.00 17.1149 19.1067 0 
151 1 0.48 70.00 20.9538 17.6077 0 
152 1 0.48 70.00 22.1158 20.3948 0 
153 1 0.46 70.00 14.9093 1.6403 0 
154 1 0.42 70.00 26.1785 7.9937 0 
155 1 0.47 70.00 21.1311 8.8427 0 
156 1 0.46 70.00 6.9689 14.2008 0 
157 1 0.47 70.00 8.2011 12.0123 0 
158 1 0.49 70.00 5.9304 12.6896 0 
159 1 0.43 70.00 12.8968 14.0673 0 
160 1 0.50 70.00 10.6664 13.5913 0 
161 1 0.43 70.00 15.4197 3.3001 0 
162 1 0.49 70.00 24.5459 10.7360 0 
163 1 0.44 70.00 7.3985 5.4863 0 
164 1 0.43 70.00 23.6181 14.6328 0 
165 1 0.46 70.00 8.5859 10.6130 0 
166 1 0.48 70.00 4.2268 18.6322 0 
167 1 0.50 70.00 7.5376 16.2105 0 
168 1 0.44 70.00 24.8961 2.9082 0 
169 1 0.47 70.00 16.0950 13.5492 0 
170 1 0.48 70.00 17.9166 16.1991 0 
171 1 0.48 70.00 16.1771 20.5026 0 
172 1 0.51 70.00 19.1399 5.0778 0 
173 1 0.53 70.00 11.0830 18.3894 0 
174 1 0.50 70.00 4.8489 15.7832 0 
175 1 0.51 70.00 0.7572 15.8811 0 
176 1 0.48 70.00 27.3295 17.4512 0 
177 1 0.51 70.00 7.2237 6.1794 0 
178 1 0.46 70.00 16.1474 12.3713 0 
179 1 0.48 70.00 27.1396 9.7202 0 
180 1 0.44 70.00 15.9847 13.9710 0 
181 1 0.43 70.00 10.3052 15.0462 0 
182 1 0.41 70.00 3.2155 13.2484 0 
183 1 0.43 70.00 15.3063 12.0975 0 
184 1 0.46 70.00 2.6140 13.7427 0 
185 1 0.41 70.00 3.9225 19.8769 0 
186 1 0.48 70.00 13.5485 17.4139 0 
187 1 0.44 70.00 26.6012 12.6600 0 
188 1 0.43 70.00 3.1552 14.6247 0 
189 1 0.46 70.00 9.7326 15.8820 0 
190 1 0.46 70.00 13.5317 0.9384 0 
191 1 0.45 70.00 11.4500 20.8442 0 
192 1 0.43 70.00 11.9394 18.0530 0 
193 1 0.52 70.00 24.1105 17.8623 0 
194 1 0.44 70.00 10.2843 18.3138 0 
195 1 0.45 70.00 18.5185 13.2091 0 
196 1 0.47 70.00 5.5224 5.8609 0 
197 1 0.49 70.00 13.3205 17.2865 0 
198 1 0.47 70.00 6.4026 6.6308 0 
199 1 0.45 70.00 5.8947 17.3956 0 
200 1 0.49 70.00 20.1880 10.7939 0 
201 1 0.47 70.00 26.4970 16.9278 0 
202 1 0.53 70.00 4.6557 14.5527 0 
203 1 0.48 70.00 18.9691 9.7665 0 
204 1 0.45 70.00 15.6707 9.0471 0 
205 1 0.53 70.00 2.7835 16.4337 0 
206 1 0.43 70.00 18.3177 17.2508 0 
207 1 0.48 70.00 20.1084 8.2105 0 
208 1 0.45 70.00 13.9615 11.4273 0 
209 1 0.46 70.00 9.9358 16.4035 0 
210 1 0.50 70.00 16.2070 21.3698 0 
211 1 0.48 70.00 25.0700 0.9932 0 
212 1 0.48 70.00 2.7034 13.1663 0 
213 1 0.44 70.00 8.4679 4.1310 0 
214 1 0.46 70.00 10.8543 12.1842 0 
215 1 0.43 70.00 24.0111 6.4215 0 
216 1 0.46 70.00 20.5613 21.4244 0 
217 1 0.51 70.00 2.2140 4.9945 0 
218 1 0.47 70.00 22.7698 12.3158 0 
219 1 0.46 70.00 24.3026 11.6525 0 
220 1 0.51 70.00 7.3001 6.8833 0 
221 1 0.49 70.00 17.5649 14.2020 0 
222 1 0.43 70.00 19.9483 16.0358 0 
223 1 0.45 70.00 22.5544 2.1157 0 
224 1 0.50 70.00 9.8913 7.1799 0 
225 1 0.46 70.00 17.9418 1.0132 0 
226 1 0.48 70.00 7.7882 16.0024 0 
227 1 0.50 70.00 14.7427 4.3058 0 
228 1 0.48 70.00 14.6988 15.4600 0 
229 1 0.44 70.00 24.9955 5.1345 0 
230 1 0.48 70.00 26.3951 18.7982 0 
231 1 0.47 70.00 5.4361 6.1087 0 
232 1 0.45 70.00 20.9256 7.1063 0 
233 1 0.46 70.00 22.1635 1.5887 0 
234 1 0.50 70.00 21.2192 15.1611 0 
235 1 0.48 70.00 6.1070 4.8034 0 
236 1 0.46 70.00 20.2684 2.6467 0 
237 1 0.47 70.00 8.6592 7.1887 0 
238 1 0.51 70.00 22.2185 15.1739 0 
239 1 0.52 70.00 16.8003 18.6019 0 
240 1 0.48 70.00 20.2400 14.9310 0 
241 1 0.46 70.00 4.1429 0.5935 0 
242 1 0.47 70.00 9.0740 6.0740 0 
243 1 0.45 70.00 14.6158 9.3130 0 
244 1 0.48 70.00 18.0258 14.4278 0 
245 1 0.47 70.00 10.2897 5.5301 0 
246 1 0.48 70.00 25.6183 17.8154 0 
247 1 0.48 70.00 12.1833 3.6874 0 
248 1 0.48 70.00 10.0281 14.1717 0 
249 1 0.47 70.00 26.7682 6.5338 0 
250 1 0.47 70.00 27.7602 5.7533 0 
251 1 0.44 70.00 20.8423 11.3826 0 
252 1 0.45 70.00 21.0482 19.4746 0 
253 1 0.48 70.00 2.8720 5.8868 0 
254 1 0.47 70.00 16.8191 14.4149 0 
255 1 0.45 70.00 6.3965 5.0600 0 
256 1 0.40 70.00 24.8672 8.8529 0 
257 1 0.42 70.00 4.1515 16.6937 0 
258 1 0.47 70.00 5.9785 19.3982 0 
259 1 0.43 70.00 2.0867 2.3636 0 
260 1 0.52 70.00 11.7467 12.5159 0 
261 1 0.42 70.00 6.6724 2.0881 0 
262 1 0.44 70.00 20.0120 15.1467 0 
263 1 0.46 70.00 11.1548 9.3117 0 
264 1 0.45 70.00 23.5441 15.8882 0 
265 1 0.44 70.00 6.8118 16.1474 0 
266 1 0.47 70.00 26.4745 1.7084 0 
267 1 0.52 70.00 4.4256 3.1331 0 
268 1 0.44 70.00 9.8584 19.0598 0 
269 1 0.49 70.00 26.0180 14.4485 0 
270 1 0.47 70.00 12.6518 5.2039 0 
271 1 0.50 70.00 21.3795 8.3512 0 
272 1 0.47 70.00 20.8354 9.2768 0 
273 1 0.48 70.00 19.2121 0.7381 0 
274 1 0.47 70.00 16.6517 16.7588 0 
275 1 0.42 70.00 22.9998 9.0322 0 
276 1 0.46 70.00 16.9662 12.4129 0 
277 1 0.47 70.00 24.9422 20.9176 0 
278 1 0.49 70.00 24.9971 16.4048 0 
279 1 0.40 70.00 18.4588 21.0179 0 
280 1 0.50 70.00 4.6101 13.0844 0 
281 1 0.43 70.00 24.2541 13.7288 0 
282 1 0.46 70.00 9.0419 6.6283 0 
283 1 0.48 70.00 7.2960 14.3123 0 
284 1 0.46 70.00 5.2111 2.9089 0 
285 1 0.47 70.00 1.3077 15.6718 0 
286 1 0.48 70.00 5.0718 16.3023 0 
287 1 0.49 70.00 7.5298 21.7447 0 
288 1 0.45 70.00 11.2979 15.9621 0 
289 1 0.53 70.00 26.2247 9.8108 0 
290 1 0.46 70.00 3.4939 9.4473 0 
291 1 0.46 70.00 3.7180 9.7626 0 
292 1 0.49 70.00 16.2970 7.3032 0 
293 1 0.44 70.00 4.1377 20.0304 0 
294 1 0.46 70.00 14.5479 13.5400 0 
295 1 0.42 70.00 15.6708 15.1848 0 
296 1 0.41 70.00 14.3221 8.8293 0 
297 1 0.47 70.00 19.8974 21.6242 0 
298 1 0.48 70.00 26.3841 16.1291 0 
299 1 0.48 70.00 6.2299 4.6263 0 
300 1 0.49 70.00 8.6919 13.9237 0 
301 1 0.44 70.00 7.2923 19.3255 0 
302 1 0.44 70.00 21.3420 18.9770 0 
303 1 0.44 70.00 11.9569 14.0286 0 
304 1 0.45 70.00 10.5489 3.4277 0 
305 1 0.42 70.00 0.5538 20.8432 0 
306 1 0.49 70.00 0.6682 3.9976 0 
307 1 0.41 70.00 3.2241 20.4549 0 
308 1 0.46 70.00 25.2431 19.3510 0 
309 1 0.47 70.00 19.1720 6.7736 0 
310 1 0.51 70.00 7.8688 1.6577 0 
311 1 0.51 70.00 6.1251 14.8185 0 
312 1 0.44 70.00 3.5289 5.4859 0 
313 1 0.49 70.00 17.1962 16.5069 0 
314 1 0.51 70.00 10.5387 14.5636 0 
315 1 0.44 70.00 16.1688 14.5582 0 
316 1 0.45 70.00 22.6070 5.7229 0 
317 1 0.47 70.00 9.4839 8.3727 0 
318 1 0.44 70.00 3.0186 3.3035 0 
319 1 0.43 70.00 27.6597 19.9040 0 
320 1 0.48 70.00 18.0552 15.9772 0 
321 1 0.50 70.00 17.6062 16.2635 0 
322 1 0.46 70.00 18.2138 14.2995 0 
323 1 0.50 70.00 22.9857 19.9143 0 
324 1 0.50 70.00 9.0553 20.0865 0 
325 1 0.44 70.00 25.1874 8.3547 0 
326 1 0.48 70.00 13.1705 14.9989 0 
327 1 0.42 70.00 12.2062 11.1590 0 
328 1 0.44 70.00 11.1981 16.4344 0 
329 1 0.42 70.00 12.8875 13.1244 0 
330 1 0.47 70.00 6.4891 2.8990 0 
331 1 0.47 70.00 3.4754 14.6578 0 
332 1 0.50 70.00 5.8648 13.4101 0 
333 1 0.49 70.00 18.2307 4.0985 0 
334 1 0.43 70.00 6.5334 19.7876 0 
335 1 0.46 70.00 8.8292 16.5110 0 
336 1 0.45 70.00 10.6860 20.3271 0 
337 1 0.49 70.00 9.2458 5.5626 0 
338 1 0.51 70.00 8.2738 18.5019 0 
339 1 0.43 70.00 7.4189 17.5745 0 
340 1 0.52 70.00 11.7200 7.3632 0 
341 1 0.45 70.00 23.3364 7.0307 0 
342 1 0.52 70.00 27.5836 16.8221 0 
343 1 0.47 70.00 15.6033 3.0300 0 
344 1 0.46 70.00 3.0807 15.0700 0 
345 1 0.45 70.00 8.4397 16.0462 0 
346 1 0.47 70.00 16.6893 4.9676 0 
347 1 0.51 70.00 15.7214 16.9239 0 
348 1 0.43 70.00 12.5082 12.0330 0 
349 1 0.43 70.00 4.3208 6.1437 0 
350 1 0.45 70.00 27.6212 9.1747 0 
351 1 0.48 70.00 8.1481 1.1111 0 
352 1 0.46 70.00 6.6346 9.4342 0 
353 1 0.44 70.00 0.7247 13.1838 0 
354 1 0.48 70.00 26.4740 13.2332 0 
355 1 0.45 70.00 25.5155 5.4566 0 
356 1 0.42 70.00 15.7233 11.1082 0 
357 1 0.51 70.00 17.8922 21.2385 0 
358 1 0.51 70.00 5.2698 16.1226 0 
359 1 0.52 70.00 18.6359 9.3313 0 
360 1 0.53 70.00 26.2957 9.4507 0 
361 1 0.44 70.00 22.2255 6.8390 0 
362 1 0.44 70.00 19.1528 3.8840 0 
363 1 0.42 70.00 10.7853 1.5277 0 
364 1 0.47 70.00 18.1204 9.6687 0 
365 1 0.47 70.00 4.5027 4.6055 0 
366 1 0.44 70.00 25.6545 21.0966 0 
367 1 0.52 70.00 5.2341 6.4838 0 
368 1 0.48 70.00 11.3024 4.6609 0 
369 1 0.46 70.00 19.8058 16.9924 0 
370 1 0.46 70.00 18.5034 0.5259 0 
371 1 0.44 70.00 27.1016 2.4772 0 
372 1 0.46 70.00 23.2870 2.1445 0 
373 1 0.49 70.00 16.3786 8.1759 0 
374 1 0.43 70.00 24.7367 8.3941 0 
375 1 0.47 70.00 5.0276 14.6203 0 
376 1 0.45 70.00 16.7853 9.1793 0 
377 1 0.48 70.00 16.1675 11.5758 0 
378 1 0.46 70.00 22.1337 6.1984 0 
379 1 0.48 70.00 6.9727 20.1974 0 
380 1 0.46 70.00 10.9320 15.7828 0 
381 1 0.47 70.00 19.2123 10.3552 0 
382 1 0.47 70.00 23.8608 17.7891 0 
383 1 0.48 70.00 10.8054 9.2487 0 
384 1 0.44 70.00 16.9202 15.1017 0 
385 1 0.44 70.00 12.3843 12.3867 0 
386 1 0.51 70.00 10.4906 3.0056 0 
387 1 0.49 70.00 14.5205 4.2196 0 
388 1 0.41 70.00 14.5603 18.9830 0 
389 1 0.48 70.00 10.2565 13.2781 0 
390 1 0.46 70.00 6.4734 11.7175 0 
391 1 0.49 70.00 9.3752 1.7279 0 
392 1 0.52 70.00 13.8862 12.2625 0 
393 1 0.51 70.00 15.4745 4.2908 0 
394 1 0.53 70.00 26.9303 8.7372 0 
395 1 0.43 70.00 3.8086 14.8891 0 
396 1 0.51 70.00 13.3846 13.0317 0 
397 1 0.41 70.00 24.3956 4.9083 0 
398 1 0.47 70.00 4.7422 19.7187 0 
399 1 0.48 70.00 17.9853 12.3479 0 
400 1 0.49 70.00 6.5748 12.0431 0 
401 1 0.46 70.00 4.1642 12.2147 0 
402 1 0.47 70.00 7.0989 18.8039 0 
403 1 0.48 70.00 26.8324 5.1123 0 
404 1 0.45 70.00 19.4983 18.9338 0 
405 1 0.49 70.00 27.6520 7.4146 0 
406 1 0.47 70.00 24.0384 16.3444 0 
407 1 0.50 70.00 24.2301 6.2774 0 
408 1 0.47 70.00 17.5388 17.0040 0 
409 1 0.47 70.00 19.5483 21.1821 0 
410 1 0.53 70.00 12.4216 16.9853 0 
411 1 0.47 70.00 23.0613 5.6454 0 
412 1 0.44 70.00 3.5412 10.5427 0 
413 1 0.49 70.00 18.0835 11.0567 0 
414 1 0.52 70.00 11.8895 13.1667 0 
415 1 0.44 70.00 23.0084 4.3941 0 
416 1 0.46 70.00 21.9415 19.5863 0 
417 1 0.46 70.00 11.3575 12.0252 0 
418 1 0.47 70.00 5.3074 3.9228 0 
419 1 0.50 70.00 4.2069 20.9435 0 
420 1 0.51 70.00 13.0741 21.0992 0 
421 1 0.52 70.00 15.4176 5.0790 0 
422 1 0.44 70.00 17.6992 0.7794 0 
423 1 0.52 70.00 7.3818 18.5369 0 
424 1 0.47 70.00 18.1037 3.3820 0 
425 1 0.43 70.00 19.7894 4.8114 0 
426 1 0.47 70.00 27.4908 4.1912 0 
427 1 0.47 70.00 14.8051 1.1700 0 
428 1 0.43 70.00 3.3334 0.7832 0 
429 1 0.47 70.00 4.3918 20.5517 0 
430 1 0.52 70.00 10.4887 19.7163 0 
431 1 0.47 70.00 24.6538 14.9673 0 
432 1 0.47 70.00 17.5405 9.9918 0 
433 1 0.45 70.00 20.7072 8.3397 0 
434 1 0.43 70.00 25.0305 8.1843 0 
435 1 0.46 70.00 21.8514 8.7702 0 
436 1 0.47 70.00 21.7598 15.7920 0 
437 1 0.45 70.00 21.8117 6.3519 0 
438 1 0.51 70.00 19.1657 16.9898 0 
439 1 0.48 70.00 27.0179 9.0805 0 
440 1 0.44 70.00 7.5146 11.9539 0 
441 1 0.42 70.00 2.6450 20.4120 0 
442 1 0.49 70.00 13.4582 21.7949 0 
443 1 0.48 70.00 9.4856 9.1355 0 
444 1 0.47 70.00 1.9569 10.3402 0 
445 1 0.46 70.00 7.2218 13.4726 0 
446 1 0.49 70.00 21.1980 3.6543 0 
447 1 0.47 70.00 11.9008 3.1724 0 
448 1 0.46 70.00 10.3472 10.8790 0 
449 1 0.47 70.00 13.1464 9.1773 0 
450 1 0.47 70.00 24.4853 2.7121 0 
451 1 0.45 70.00 6.4052 7.3317 0 
452 1 0.51 70.00 13.4823 11.1582 0 
453 1 0.45 70.00 2.8838 5.6328 0 
454 1 0.46 70.00 19.4925 14.0879 0 
455 1 0.48 70.00 9.2791 10.1984 0 
456 1 0.49 70.00 8.0244 11.0707 0 
457 1 0.48 70.00 6.1488 4.3389 0 
458 1 0.49 70.00 14.6631 6.7771 0 
459 1 0.42 70.00 14.3317 18.5864 0 
460 1 0.50 70.00 7.8071 13.1443 0 
461 1 0.45 70.00 22.0677 11.7711 0 
462 1 0.50 70.00 26.2587 16.5675 0 
463 1 0.47 70.00 24.1295 15.5930 0 
464 1 0.46 70.00 5.5456 13.5905 0 
465 1 0.43 70.00 0.7850 3.5267 0 
466 1 0.47 70.00 11.4668 9.3989 0 
467 1 0.50 70.00 19.5043 11.2624 0 
468 1 0.50 70.00 20.3923 8.5817 0 
469 1 0.49 70.00 10.6052 4.3674 0 
470 1 0.43 70.00 5.0170 0.6563 0 
471 1 0.46 70.00 17.7648 4.2766 0 
472 1 0.52 70.00 21.9936 0.8502 0 
473 1 0.46 70.00 22.8688 3.0724 0 
474 1 0.44 70.00 6.7687 11.8081 0 
475 1 0.44 70.00 23.9185 10.6271 0 
476 1 0.51 70.00 4.5515 21.1367 0 
477 1 0.43 70.00 14.5822 16.0212 0 
478 1 0.53 70.00 16.0586 2.0475 0 
479 1 0.47 70.00 2.8420 14.3879 0 
480 1 0.48 70.00 20.0604 17.3247 0 
481 1 0.43 70.00 20.2424 16.5837 0 
482 1 0.47 70.00 2.5481 19.1074 0 
483 1 0.49 70.00 7.9362 10.7372 0 
484 1 0.46 70.00 27.1649 18.6384 0 
485 1 0.42 70.00 21.4296 16.7974 0 
486 1 0.52 70.00 9.3814 18.7092 0 
487 1 0.42 70.00 1.0932 11.2441 0 
488 1 0.54 70.00 23.1913 18.5203 0 
489 1 0.47 70.00 5.5227 4.6360 0 
490 1 0.45 70.00 27.7738 2.2990 0 
491 1 0.49 70.00 9.7040 18.7471 0 
492 1 0.45 70.00 9.8312 13.3838 0 
493 1 0.48 70.00 19.5874 13.2818 0 
494 1 0.44 70.00 11.0559 8.4040 0 
495 1 0.49 70.00 2.8748 2.7375 0 
496 1 0.50 70.00 18.3169 4.3320 0 
497 1 0.53 70.00 4.3236 15.8184 0 
498 1 0.47 70.00 3.2669 11.8729 0 
499 1 0.52 70.00 3.6785 6.8396 0 
500 1 0.46 70.00 9.5093 2.2334 0 
501 1 0.43 70.00 10.9115 9.8904 0 
502 1 0.51 70.00 22.1399 3.5166 0 
503 1 0.44 70.00 15.1700 16.9196 0 
504 1 0.41 70.00 21.0708 17.8180 0 
505 1 0.48 70.00 19.0591 11.5097 0 
506 1 0.42 70.00 14.0209 6.5117 0 
507 1 0.49 70.00 15.7003 7.4608 0 
508 1 0.49 70.00 13.9112 18.8087 0 
509 1 0.45 70.00 11.5444 18.2463 0 
510 1 0.45 70.00 24.5111 20.5579 0 
511 1 0.46 70.00 21.9082 17.1261 0 
512 1 0.49 70.00 27.5185 9.5734 0 
513 1 0.43 70.00 27.6190 11.6682 0 
514 1 0.40 70.00 27.4556 5.0463 0 
515 1 0.45 70.00 23.1095 10.9510 0 
516 1 0.49 70.00 3.2341 7.9313 0 
517 1 0.37 70.00 13.0220 20.4196 0 
518 1 0.46 70.00 5.4557 13.9967 0 
519 1 0.42 70.00 13.2540 16.8544 0 
520 1 0.52 70.00 5.2728 4.9371 0 
521 1 0.40 70.00 26.5011 5.5645 0 
522 1 0.48 70.00 19.0195 21.7066 0 
523 1 0.48 70.00 17.8307 6.7921 0 
524 1 0.47 70.00 21.9723 8.4028 0 
525 1 0.44 70.00 17.3107 15.9511 0 
526 1 0.39 70.00 13.3090 6.2701 0 
527 1 0.45 70.00 2.7442 14.6278 0 
528 1 0.48 70.00 16.8268 1.2334 0 
529 1 0.42 70.00 19.7314 21.0344 0 
530 1 0.49 70.00 18.4848 19.2113 0 
531 1 0.50 70.00 7.0402 13.2037 0 
532 1 0.48 70.00 12.4471 0.6991 0 
533 1 0.48 70.00 8.4630 13.1622 0 
534 1 0.44 70.00 17.6126 5.9492 0 
535 1 0.45 70.00 22.7967 1.7689 0 
536 1 0.48 70.00 9.3944 16.6800 0 
537 1 0.48 70.00 16.0421 1.8372 0 
538 1 0.48 70.00 14.4669 7.6342 0 
539 1 0.47 70.00 27.7748 15.4192 0 
540 1 0.50 70.00 6.3690 18.5521 0 
541 1 0.46 70.00 5.9765 10.6307 0 
542 1 0.44 70.00 10.1010 10.7876 0 
543 1 0.46 70.00 19.2673 9.2223 0 
544 1 0.45 70.00 26.2789 8.4542 0 
545 1 0.48 70.00 18.1809 4.9518 0 
546 1 0.49 70.00 21.6073 4.8115 0 
547 1 0.47 70.00 5.2889 10.5136 0 
548 1 0.48 70.00 13.0557 17.3735 0 
549 1 0.46 70.00 1.6441 14.5290 0 
550 1 0.48 70.00 25.2837 17.6690 0 
551 1 0.54 70.00 9.2847 18.1355 0 
552 1 0.51 70.00 11.4287 18.4143 0 
553 1 0.48 70.00 24.1103 19.2374 0 
554 1 0.46 70.00 21.7961 19.9856 0 
555 1 0.44 70.00 19.0782 3.0403 0 
556 1 0.48 70.00 4.9056 18.8681 0 
557 1 0.49 70.00 18.2669 21.3354 0 
558 1 0.50 70.00 12.7136 9.8699 0 
559 1 0.50 70.00 23.2139 10.6109 0 
560 1 0.47 70.00 13.0220 15.8614 0 
561 1 0.44 70.00 24.3575 20.3002 0 
562 1 0.45 70.00 11.5679 2.3400 0 
563 1 0.46 70.00 11.6177 3.7165 0 
564 1 0.47 70.00 22.4072 4.3534 0 
565 1 0.50 70.00 26.4516 11.1507 0 
566 1 0.49 70.00 0.6720 14.8366 0 
567 1 0.44 70.00 4.8942 20.7975 0 
568 1 0.44 70.00 22.3973 3.4270 0 
569 1 0.49 70.00 27.4161 6.1855 0 
570 1 0.47 70.00 24.6099 13.3835 0 
571 1 0.48 70.00 5.1482 3.4989 0 
572 1 0.44 70.00 13.7135 8.4411 0 
573 1 0.49 70.00 7.4542 6.2177 0 
574 1 0.48 70.00 2.7259 15.5619 0 
575 1 0.45 70.00 20.5940 13.2070 0 
576 1 0.45 70.00 21.5636 3.2273 0 
577 1 0.46 70.00 10.2598 11.8399 0 
578 1 0.50 70.00 10.7024 15.3348 0 
579 1 0.49 70.00 13.0133 14.5944 0 
580 1 0.46 70.00 1.1700 10.0114 0 
581 1 0.45 70.00 23.2708 2.7728 0 
582 1 0.48 70.00 22.6551 9.3456 0 
583 1 0.44 70.00 1.1094 12.4602 0 
584 1 0.48 70.00 3.8608 12.1625 0 
585 1 0.45 70.00 15.6429 2.5778 0 
586 1 0.47 70.00 27.0216 6.3000 0 
587 1 0.48 70.00 5.2256 2.6974 0 
588 1 0.44 70.00 14.4342 18.7610 0 
589 1 0.44 70.00 16.7753 11.2344 0 
590 1 0.45 70.00 8.9002 5.1370 0 
591 1 0.45 70.00 22.0624 13.3630 0 
592 1 0.50 70.00 22.2193 11.3691 0 
593 1 0.47 70.00 27.7956 17.2087 0 
594 1 0.46 70.00 10.9288 8.7892 0 
595 1 0.47 70.00 0.8382 15.4221 0 
596 1 0.49 70.00 19.9305 2.4859 0 
597 1 0.46 70.00 12.7207 5.9677 0 
598 1 0.49 70.00 13.5562 16.9871 0 
599 1 0.45 70.00 22.7447 16.3608 0 
600 1 0.46 70.00 25.0555 13.0700 0 
601 1 0.43 70.00 23.4029 16.3527 0 
602 1 0.52 70.00 2.8155 8.2552 0 
603 1 0.44 70.00 22.8143 5.3459 0 
604 1 0.52 70.00 18.3416 19.9430 0 
605 1 0.51 70.00 5.1771 21.0008 0 
606 1 0.51 70.00 4.9907 3.3393 0 
607 1 0.46 70.00 5.0376 9.2797 0 
608 1 0.50 70.00 17.1010 12.9016 0 
609 1 0.45 70.00 25.7382 12.3382 0 
610 1 0.50 70.00 11.6164 16.6017 0 
611 1 0.48 70.00 27.2628 21.2249 0 
612 1 0.49 70.00 18.1599 7.1947 0 
613 1 0.48 70.00 21.6335 7.2810 0 
614 1 0.43 70.00 16.5354 6.9966 0 
615 1 0.47 70.00 3.4241 8.9669 0 
616 1 0.46 70.00 17.4568 20.4891 0 
617 1 0.43 70.00 21.8483 2.2040 0 
618 1 0.46 70.00 6.5795 14.9738 0 
619 1 0.49 70.00 7.8210 4.3607 0 
620 1 0.48 70.00 8.4722 5.5880 0 
621 1 0.43 70.00 4.6162 5.1344 0 
622 1 0.50 70.00 11.9602 6.0579 0 
623 1 0.55 70.00 19.0194 9.2735 0 
624 1 0.48 70.00 3.2418 19.7213 0 
625 1 0.48 70.00 25.1693 11.7817 0 
626 1 0.42 70.00 24.4267 7.0737 0 
627 1 0.46 70.00 1.8072 12.7160 0 
628 1 0.52 70.00 13.5087 3.0602 0 
629 1 0.49 70.00 15.2306 7.9605 0 
630 1 0.47 70.00 27.3473 19.3206 0 
631 1 0.46 70.00 18.9825 8.1468 0 
632 1 0.42 70.00 27.2746 18.8834 0 
633 1 0.38 70.00 27.1097 16.4859 0 
634 1 0.47 70.00 16.3079 13.5317 0 
635 1 0.42 70.00 2.7094 20.0668 0 
636 1 0.46 70.00 5.2775 0.6642 0 
637 1 0.47 70.00 1.7349 1.7976 0 
638 1 0.47 70.00 3.6964 0.8314 0 
639 1 0.46 70.00 6.1683 6.7081 0 
640 1 0.51 70.00 12.7336 16.2208 0 
641 1 0.49 70.00 17.2897 6.5773 0 
642 1 0.47 70.00 0.5225 5.1250 0 
643 1 0.46 70.00 15.0156 11.0641 0 
644 1 0.48 70.00 13.2538 3.1345 0 
645 1 0.47 70.00 13.7868 9.0714 0 
646 1 0.42 70.00 20.3615 15.2984 0 
647 1 0.49 70.00 20.8599 19.9462 0 
648 1 0.50 70.00 19.5122 9.5420 0 
649 1 0.50 70.00 1.0559 10.3661 0 
650 1 0.46 70.00 9.5430 10.4122 0 
651 1 0.46 70.00 0.6282 2.4993 0 
652 1 0.50 70.00 15.6288 20.5296 0 
653 1 0.41 70.00 15.7863 1.5431 0 
654 1 0.52 70.00 6.7388 13.0143 0 
655 1 0.48 70.00 6.6634 18.4171 0 
656 1 0.49 70.00 15.6513 11.3642 0 
657 1 0.55 70.00 13.3940 1.3162 0 
658 1 0.42 70.00 9.4323 15.1979 0 
659 1 0.48 70.00 10.5446 12.4437 0 
660 1 0.51 70.00 17.7382 19.8155 0 
661 1 0.48 70.00 24.2536 6.8678 0 
662 1 0.48 70.00 11.4966 20.5964 0 
663 1 0.47 70.00 21.1637 11.1517 0 
664 1 0.45 70.00 17.3169 5.5340 0 
665 1 0.54 70.00 8.0640 8.2729 0 
666 1 0.49 70.00 3.3438 12.7445 0 
667 1 0.52 70.00 12.3821 11.3981 0 
668 1 0.48 70.00 19.2149 9.5666 0 
669 1 0.52 70.00 25.4755 1.9835 0 
670 1 0.45 70.00 23.3495 0.8894 0 
671 1 0.49 70.00 19.1277 6.2753 0 
672 1 0.49 70.00 17.3249 13.6658 0 
673 1 0.50 70.00 24.2863 5.4280 0 
674 1 0.49 70.00 1.3179 1.0702 0 
675 1 0.46 70.00 21.5547 2.6507 0 
676 1 0.53 70.00 23.9704 15.0903 0 
677 1 0.47 70.00 4.6289 1.1017 0 
678 1 0.44 70.00 13.4489 12.1689 0 
679 1 0.47 70.00 6.8635 13.3018 0 
680 1 0.47 70.00 2.9028 1.4081 0 
681 1 0.44 70.00 1.5664 20.9170 0 
682 1 0.47 70.00 3.0009 16.3311 0 
683 1 0.45 70.00 1.2148 20.7585 0 
684 1 0.46 70.00 15.2452 19.4936 0 
685 1 0.49 70.00 11.8704 21.7235 0 
686 1 0.43 70.00 15.5966 18.2073 0 
687 1 0.42 70.00 24.2633 19.6914 0 
688 1 0.47 70.00 24.7104 7.1738 0 
689 1 0.42 70.00 25.5875 16.4092 0 
690 1 0.47 70.00 1.1248 21.4485 0 
691 1 0.46 70.00 25.5089 15.5144 0 
692 1 0.47 70.00 9.9993 10.0140 0 
693 1 0.47 70.00 19.2128 5.3793 0 
694 1 0.51 70.00 11.2627 19.5778 0 
695 1 0.48 70.00 3.1834 14.3560 0 
696 1 0.48 70.00 0.6718 10.6414 0 
697 1 0.50 70.00 4.4214 2.6792 0 
698 1 0.46 70.00 25.7280 7.8128 0 
699 1 0.49 70.00 10.8930 20.6698 0 
700 1 0.52 70.00 7.6729 14.3757 0 
701 1 0.46 70.00 16.5681 3.4620 0 
702 1 0.44 70.00 8.3381 0.6118 0 
703 1 0.48 70.00 18.5724 10.9105 0 
704 1 0.45 70.00 21.4034 4.1549 0 
705 1 0.48 70.00 7.1417 19.0248 0 
706 1 0.50 70.00 27.5364 17.1179 0 
707 1 0.48 70.00 14.2121 2.3882 0 
708 1 0.45 70.00 1.3872 13.7233 0 
709 1 0.45 70.00 8.7401 3.7459 0 
710 1 0.45 70.00 3.5460 2.1082 0 
711 1 0.48 70.00 25.7091 2.3600 0 
712 1 0.48 70.00 21.8366 7.8385 0 
713 1 0.45 70.00 22.2875 9.1164 0 
714 1 0.43 70.00 7.8228 13.7001 0 
715 1 0.39 70.00 3.3681 16.9794 0 
716 1 0.45 70.00 11.6020 15.8287 0 
717 1 0.47 70.00 16.6370 19.3844 0 
718 1 0.43 70.00 14.8674 0.8000 0 
719 1 0.51 70.00 14.1222 11.6123 0 
720 1 0.53 70.00 4.9428 2.0913 0 
721 1 0.49 70.00 0.5272 11.6763 0 
722 1 0.45 70.00 8.7786 3.1536 0 
723 1 0.47 70.00 27.4743 13.3722 0 
724 1 0.49 70.00 25.5365 10.8377 0 
725 1 0.53 70.00 8.7981 13.7271 0 
726 1 0.48 70.00 5.6990 15.7018 0 
727 1 0.48 70.00 18.7734 1.4699 0 
728 1 0.52 70.00 18.9036 8.6123 0 
729 1 0.46 70.00 25.2778 0.7281 0 
730 1 0.44 70.00 16.9092 18.1232 0 
731 1 0.49 70.00 6.9234 9.4618 0 
732 1 0.50 70.00 13.5812 20.0517 0 
733 1 0.47 70.00 2.3629 15.7010 0 
734 1 0.50 70.00 24.8552 4.1080 0 
735 1 0.44 70.00 2.4715 18.3129 0 
736 1 0.43 70.00 20.6048 8.9033 0 
737 1 0.43 70.00 19.4671 19.7844 0 
738 1 0.46 70.00 11.6795 3.4451 0 
739 1 0.43 70.00 21.3995 20.0495 0 
740 1 0.47 70.00 12.1440 3.2223 0 
741 1 0.45 70.00 8.1697 4.2763 0 
742 1 0.54 70.00 8.5753 1.6734 0 
743 1 0.49 70.00 13.3981 13.7018 0 
744 1 0.46 70.00 21.8405 6.1370 0 
745 1 0.46 70.00 11.5268 1.2930 0 
746 1 0.50 70.00 11.4498 3.2932 0 
747 1 0.48 70.00 27.6151 8.2641 0 
748 1 0.47 70.00 25.5736 8.4912 0 
749 1 0.51 70.00 8.8872 7.0803 0 
750 1 0.52 70.00 19.9162 14.1985 0 
751 1 0.49 70.00 5.9112 6.9216 0 
752 1 0.49 70.00 7.1558 15.0673 0 
753 1 0.45 70.00 14.6209 1.3908 0 
754 1 0.44 70.00 4.8415 10.0513 0 
755 1 0.46 70.00 21.6688 18.2608 0 
756 1 0.46 70.00 17.7896 7.7055 0 
757 1 0.45 70.00 15.1578 8.1562 0 
758 1 0.50 70.00 19.7617 11.1208 0 
759 1 0.47 70.00 9.5025 12.4865 0 
760 1 0.44 70.00 24.6503 19.9145 0 
761 1 0.52 70.00 7.4501 2.3936 0 
762 1 0.43 70.00 3.3224 11.5876 0 
763 1 0.47 70.00 6.8868 8.3695 0 
764 1 0.46 70.00 8.7263 21.5435 0 
765 1 0.44 70.00 8.4333 6.7495 0 
766 1 0.45 70.00 22.7425 16.9049 0 
767 1 0.47 70.00 23.3211 15.8698 0 
768 1 0.45 70.00 21.5764 12.1856 0 
769 1 0.53 70.00 6.4406 8.1572 0 
770 1 0.50 70.00 9.9848 16.1999 0 
771 1 0.52 70.00 16.4360 20.2527 0 
772 1 0.51 70.00 26.6146 17.9932 0 
773 1 0.48 70.00 26.6023 19.9076 0 
774 1 0.42 70.00 27.7013 12.0471 0 
775 1 0.53 70.00 16.4523 13.9698 0 
776 1 0.48 70.00 14.9240 2.4724 0 
777 1 0.43 70.00 14.6078 13.0782 0 
778 1 0.47 70.00 3.2864 11.3034 0 
779 1 0.52 70.00 21.5971 11.1696 0 
780 1 0.51 70.00 17.5839 3.7480 0 
781 1 0.44 70.00 4.0779 18.4958 0 
782 1 0.51 70.00 27.7417 1.8494 0 
783 1 0.49 70.00 9.3779 8.6116 0 
784 1 0.48 70.00 14.9032 7.7736 0 
785 1 0.46 70.00 10.8959 4.5583 0 
786 1 0.42 70.00 20.4561 9.0427 0 
787 1 0.45 70.00 20.7470 16.9983 0 
788 1 0.45 70.00 11.5764 20.3188 0 
789 1 0.50 70.00 20.3719 2.4187 0 
790 1 0.50 70.00 12.0972 10.5297 0 
791 1 0.44 70.00 21.2500 5.7200 0 
792 1 0.47 70.00 25.8758 17.2754 0 
793 1 0.50 70.00 14.7751 14.2361 0 
794 1 0.45 70.00 21.1013 4.1135 0 
795 1 0.44 70.00 2.8580 18.7601 0 
796 1 0.49 70.00 15.3297 0.8034 0 
797 1 0.46 70.00 8.7351 14.1747 0 
798 1 0.47 70.00 6.6687 16.4194 0 
799 1 0.46 70.00 24.6862 18.9035 0 
800 1 0.47 70.00 7.7820 9.9391 0 
801 1 0.49 70.00 25.5659 14.9144 0 
802 1 0.51 70.00 7.7297 3.4179 0 
803 1 0.41 70.00 10.0763 21.4834 0 
804 1 0.49 70.00 8.7108 18.1789 0 
805 1 0.48 70.00 5.4887 13.0904 0 
806 1 0.50 70.00 17.8924 16.9854 0 
807 1 0.50 70.00 16.9535 20.0998 0 
808 1 0.47 70.00 12.5588 19.2355 0 
809 1 0.46 70.00 25.9424 7.5947 0 
810 1 0.44 70.00 19.1902 11.8931 0 
811 1 0.51 70.00 25.4601 13.5379 0 
812 1 0.47 70.00 5.3745 9.0899 0 
813 1 0.48 70.00 25.9846 16.1445 0 
814 1 0.47 70.00 5.5225 18.4457 0 
815 1 0.41 70.00 15.8270 2.8017 0 
816 1 0.43 70.00 8.3878 7.5759 0 
817 1 0.50 70.00 15.7451 6.0805 0 
818 1 0.48 70.00 3.7699 18.5548 0 
819 1 0.50 70.00 4.7181 16.0984 0 
820 1 0.49 70.00 13.8789 8.7040 0 
821 1 0.50 70.00 26.8035 12.8550 0 
822 1 0.52 70.00 6.5043 10.0429 0 
823 1 0.50 70.00 4.7437 9.2844 0 
824 1 0.49 70.00 23.9367 9.4907 0 
825 1 0.48 70.00 24.6080 9.7531 0 
826 1 0.51 70.00 18.0835 6.2538 0 
827 1 0.46 70.00 5.3236 5.5441 0 
828 1 0.45 70.00 15.9907 20.7018 0 
829 1 0.40 70.00 8.8117 14.6103 0 
830 1 0.48 70.00 22.8401 0.5210 0 
831 1 0.49 70.00 12.4707 2.4138 0 
832 1 0.45 70.00 22.5418 8.8617 0 
833 1 0.42 70.00 1.7723 13.9021 0 
834 1 0.47 70.00 20.2897 17.4774 0 
835 1 0.44 70.00 24.6432 12.0231 0 
836 1 0.48 70.00 22.6105 4.5144 0 
837 1 0.44 70.00 19.6875 0.8549 0 
838 1 0.50 70.00 4.5876 12.7794 0 
839 1 0.52 70.00 20.8091 4.0207 0 
840 1 0.47 70.00 3.7865 21.3948 0 
841 1 0.48 70.00 4.4683 8.9786 0 
842 1 0.47 70.00 27.7246 12.9553 0 
843 1 0.41 70.00 6.7691 12.4738 0 
844 1 0.47 70.00 14.2860 14.3091 0 
845 1 0.46 70.00 7.3717 12.1081 0 
846 1 0.39 70.00 9.8488 5.1484 0 
847 1 0.49 70.00 25.9324 7.8794 0 
848 1 0.50 70.00 25.3771 21.3461 0 
849 1 0.49 70.00 17.3648 7.3668 0 
850 1 0.47 70.00 18.1453 11.9876 0 
851 1 0.43 70.00 17.0458 5.3569 0 