# LAMMPS data file for rigid bodies

1848 atoms

2 atom types

0.0 	 28.0 	 xlo xhi 
0.0 	 22.0 	 ylo yhi 
-1.0 	 1.0 	 zlo zhi 

Atoms

1 1 0.50 70.00 16.5315 13.9179 0 
2 1 0.45 70.00 4.0990 7.0058 0 
3 1 0.47 70.00 2.7230 11.8962 0 
4 1 0.54 70.00 7.0689 6.7968 0 
5 1 0.48 70.00 13.3762 1.8495 0 
6 1 0.48 70.00 11.3010 14.2763 0 
7 1 0.48 70.00 15.7266 2.5265 0 
8 1 0.49 70.00 20.0416 12.1233 0 
9 1 0.47 70.00 0.9891 12.5591 0 
10 1 0.47 70.00 26.3029 7.7691 0 
11 1 0.48 70.00 25.4655 9.1045 0 
12 1 0.42 70.00 5.2388 5.9717 0 
13 1 0.48 70.00 10.7426 13.3744 0 
14 1 0.50 70.00 13.1840 7.0694 0 
15 1 0.44 70.00 17.7254 1.8392 0 
16 1 0.49 70.00 24.5037 17.7073 0 
17 1 0.49 70.00 1.7898 12.3863 0 
18 1 0.48 70.00 11.1839 1.6455 0 
19 1 0.38 70.00 14.3219 20.5803 0 
20 1 0.43 70.00 10.7804 12.3585 0 
21 1 0.45 70.00 15.1427 21.6303 0 
22 1 0.50 70.00 1.8904 7.0496 0 
23 1 0.48 70.00 1.6334 12.2294 0 
24 1 0.45 70.00 9.8609 15.0306 0 
25 1 0.49 70.00 21.8186 2.2826 0 
26 1 0.50 70.00 5.9244 4.1770 0 
27 1 0.49 70.00 13.3610 10.6191 0 
28 1 0.41 70.00 12.6670 15.8454 0 
29 1 0.51 70.00 4.7451 15.5323 0 
30 1 0.47 70.00 2.0805 15.0952 0 
31 1 0.45 70.00 3.1861 11.8642 0 
32 1 0.44 70.00 18.1109 3.9814 0 
33 1 0.50 70.00 12.9944 14.9228 0 
34 1 0.44 70.00 19.2548 21.4796 0 
35 1 0.49 70.00 25.5539 3.4155 0 
36 1 0.47 70.00 24.9678 18.8264 0 
37 1 0.42 70.00 27.6570 21.3794 0 
38 1 0.46 70.00 24.2858 11.1951 0 
39 1 0.46 70.00 6.7185 18.0216 0 
40 1 0.43 70.00 6.6373 11.6060 0 
41 1 0.47 70.00 24.1191 19.7705 0 
42 1 0.43 70.00 7.4594 12.2070 0 
43 1 0.51 70.00 5.1612 8.3666 0 
44 1 0.49 70.00 18.8563 15.2667 0 
45 1 0.48 70.00 4.3389 8.2075 0 
46 1 0.54 70.00 26.1688 8.2502 0 
47 1 0.45 70.00 8.8794 4.8628 0 
48 1 0.44 70.00 18.5117 13.9291 0 
49 1 0.47 70.00 5.5793 13.5297 0 
50 1 0.43 70.00 18.9544 18.5561 0 
51 1 0.43 70.00 4.6066 6.1514 0 
52 1 0.47 70.00 12.8603 16.8011 0 
53 1 0.48 70.00 12.6941 17.1052 0 
54 1 0.44 70.00 11.9037 20.0144 0 
55 1 0.45 70.00 12.5145 12.2188 0 
56 1 0.52 70.00 2.2880 8.3308 0 
57 1 0.43 70.00 0.9851 12.0180 0 
58 1 0.47 70.00 24.3145 0.7368 0 
59 1 0.44 70.00 14.9458 14.2860 0 
60 1 0.48 70.00 16.3232 21.7148 0 
61 1 0.39 70.00 25.3340 14.8389 0 
62 1 0.50 70.00 3.1386 8.4159 0 
63 1 0.51 70.00 10.1297 21.6161 0 
64 1 0.45 70.00 27.0725 7.0581 0 
65 1 0.48 70.00 13.7051 1.9618 0 
66 1 0.44 70.00 1.1053 19.3292 0 
67 1 0.45 70.00 17.2206 0.6357 0 
68 1 0.44 70.00 11.3392 10.4306 0 
69 1 0.46 70.00 19.1341 8.2350 0 
70 1 0.46 70.00 15.8326 1.7738 0 
71 1 0.49 70.00 24.2173 3.6436 0 
72 1 0.44 70.00 25.2817 20.2862 0 
73 1 0.40 70.00 14.9968 14.6079 0 
74 1 0.51 70.00 6.6679 14.7972 0 
75 1 0.43 70.00 25.0891 3.0066 0 
76 1 0.52 70.00 13.7296 6.4272 0 
77 1 0.45 70.00 10.3549 8.8047 0 
78 1 0.51 70.00 18.3464 14.1822 0 
79 1 0.47 70.00 4.4421 9.1912 0 
80 1 0.45 70.00 13.9919 8.3644 0 
81 1 0.49 70.00 14.1078 4.9038 0 
82 1 0.45 70.00 11.1297 17.5293 0 
83 1 0.46 70.00 23.7481 11.4571 0 
84 1 0.47 70.00 16.4751 12.6364 0 
85 1 0.44 70.00 11.1898 9.8137 0 
86 1 0.48 70.00 15.2914 10.0417 0 
87 1 0.47 70.00 18.0792 18.2712 0 
88 1 0.53 70.00 2.2015 5.5428 0 
89 1 0.48 70.00 21.0838 18.7639 0 
90 1 0.43 70.00 6.3174 13.1350 0 
91 1 0.46 70.00 3.5727 8.5744 0 
92 1 0.44 70.00 26.8907 3.9847 0 
93 1 0.45 70.00 8.4465 3.3228 0 
94 1 0.45 70.00 26.0710 2.8385 0 
95 1 0.47 70.00 5.4227 10.3540 0 
96 1 0.49 70.00 22.8615 21.4205 0 
97 1 0.49 70.00 15.3711 15.6640 0 
98 1 0.40 70.00 10.4642 17.0097 0 
99 1 0.45 70.00 8.6508 10.3091 0 
100 1 0.44 70.00 12.2317 15.2486 0 
101 1 0.47 70.00 18.9417 20.6347 0 
102 1 0.49 70.00 12.7739 21.1182 0 
103 1 0.41 70.00 9.3339 12.6783 0 
104 1 0.46 70.00 17.7145 5.2336 0 
105 1 0.45 70.00 14.9303 11.1783 0 
106 1 0.47 70.00 12.7400 18.3865 0 
107 1 0.46 70.00 18.5837 2.6556 0 
108 1 0.41 70.00 26.9114 0.8316 0 
109 1 0.45 70.00 3.9097 4.3777 0 
110 1 0.48 70.00 23.1141 19.7825 0 
111 1 0.49 70.00 12.8216 3.8126 0 
112 1 0.47 70.00 24.8315 14.7774 0 
113 1 0.53 70.00 0.8807 4.5614 0 
114 1 0.44 70.00 1.0556 17.8865 0 
115 1 0.47 70.00 8.2557 7.1137 0 
116 1 0.45 70.00 19.3071 1.4053 0 
117 1 0.43 70.00 25.2613 11.2248 0 
118 1 0.45 70.00 27.6949 13.3688 0 
119 1 0.48 70.00 11.4929 1.7430 0 
120 1 0.48 70.00 12.6240 4.3149 0 
121 1 0.49 70.00 13.4578 3.2592 0 
122 1 0.44 70.00 3.7424 8.9536 0 
123 1 0.48 70.00 10.1725 13.1670 0 
124 1 0.48 70.00 20.7637 19.5307 0 
125 1 0.50 70.00 7.0992 14.1320 0 
126 1 0.53 70.00 23.9265 2.1408 0 
127 1 0.45 70.00 20.4462 10.4473 0 
128 1 0.49 70.00 26.0113 19.2676 0 
129 1 0.48 70.00 25.1104 14.8369 0 
130 1 0.46 70.00 0.8409 3.7033 0 
131 1 0.50 70.00 26.4517 7.5313 0 
132 1 0.53 70.00 22.6141 4.8735 0 
133 1 0.41 70.00 9.5694 2.7861 0 
134 1 0.49 70.00 27.7842 12.6277 0 
135 1 0.49 70.00 8.5248 19.4208 0 
136 1 0.43 70.00 19.2751 16.5034 0 
137 1 0.44 70.00 24.5770 19.4105 0 
138 1 0.48 70.00 23.1429 2.7401 0 
139 1 0.53 70.00 6.4657 7.7481 0 
140 1 0.47 70.00 11.3291 16.9746 0 
141 1 0.48 70.00 8.6424 13.6638 0 
142 1 0.48 70.00 8.8839 5.6671 0 
143 1 0.52 70.00 22.9942 7.4857 0 
144 1 0.43 70.00 14.2252 16.0357 0 
145 1 0.46 70.00 26.4475 21.4583 0 
146 1 0.48 70.00 26.1543 9.5123 0 
147 1 0.46 70.00 10.6757 12.1333 0 
148 1 0.43 70.00 27.1584 8.0212 0 
149 1 0.45 70.00 18.9972 11.4900 0 
150 1 0.50 70.00 14.3540 21.1471 0 
151 1 0.45 70.00 26.6807 18.5810 0 
152 1 0.49 70.00 9.9749 4.6961 0 
153 1 0.49 70.00 21.2947 9.7680 0 
154 1 0.49 70.00 26.3268 16.6573 0 
155 1 0.45 70.00 12.7515 14.5156 0 
156 1 0.50 70.00 20.7091 20.3389 0 
157 1 0.45 70.00 12.7663 2.6977 0 
158 1 0.48 70.00 11.6183 10.9570 0 
159 1 0.45 70.00 2.1756 17.4920 0 
160 1 0.44 70.00 2.7794 9.4045 0 
161 1 0.50 70.00 13.1743 13.8664 0 
162 1 0.46 70.00 2.7771 7.3468 0 
163 1 0.44 70.00 20.1826 12.7586 0 
164 1 0.47 70.00 11.6906 21.6485 0 
165 1 0.48 70.00 22.7408 8.8640 0 
166 1 0.49 70.00 9.8145 4.4063 0 
167 1 0.49 70.00 3.4002 7.6967 0 
168 1 0.48 70.00 4.5168 13.2464 0 
169 1 0.46 70.00 14.9164 12.2603 0 
170 1 0.50 70.00 16.6199 1.1588 0 
171 1 0.52 70.00 19.9752 8.0013 0 
172 1 0.48 70.00 9.3712 2.9357 0 
173 1 0.46 70.00 19.5502 7.3390 0 
174 1 0.50 70.00 1.2494 2.1919 0 
175 1 0.47 70.00 8.7508 14.9137 0 
176 1 0.47 70.00 1.2806 13.1259 0 
177 1 0.48 70.00 27.0327 20.1024 0 
178 1 0.48 70.00 10.3251 7.9546 0 
179 1 0.48 70.00 25.9167 11.6257 0 
180 1 0.47 70.00 5.9018 11.7867 0 
181 1 0.52 70.00 10.5827 15.8498 0 
182 1 0.40 70.00 9.9869 20.8163 0 
183 1 0.47 70.00 19.8828 16.9363 0 
184 1 0.51 70.00 22.8490 10.0481 0 
185 1 0.43 70.00 26.5489 5.2274 0 
186 1 0.49 70.00 10.3314 14.1076 0 
187 1 0.44 70.00 27.3184 2.5507 0 
188 1 0.50 70.00 17.0375 5.2671 0 
189 1 0.49 70.00 6.8217 14.3063 0 
190 1 0.43 70.00 7.6057 13.8430 0 
191 1 0.43 70.00 16.2035 13.3915 0 
192 1 0.49 70.00 5.5022 5.2916 0 
193 1 0.49 70.00 27.6423 8.9539 0 
194 1 0.48 70.00 17.3487 10.3557 0 
195 1 0.47 70.00 21.7242 6.7335 0 
196 1 0.47 70.00 10.6193 4.6586 0 
197 1 0.49 70.00 21.5009 5.5544 0 
198 1 0.53 70.00 21.2031 21.0156 0 
199 1 0.43 70.00 4.4013 21.0818 0 
200 1 0.49 70.00 7.8874 20.1938 0 
201 1 0.44 70.00 2.3767 13.2028 0 
202 1 0.46 70.00 20.1450 20.1375 0 
203 1 0.50 70.00 2.0609 5.3448 0 
204 1 0.45 70.00 24.3342 3.0568 0 
205 1 0.45 70.00 18.4048 17.4123 0 
206 1 0.52 70.00 13.8296 18.2792 0 
207 1 0.44 70.00 23.2375 18.1886 0 
208 1 0.47 70.00 23.2207 8.7978 0 
209 1 0.47 70.00 16.5506 18.3227 0 
210 1 0.47 70.00 17.4361 14.3740 0 
211 1 0.49 70.00 23.8931 19.5386 0 
212 1 0.45 70.00 25.9194 8.4543 0 
213 1 0.46 70.00 5.2713 4.3397 0 
214 1 0.43 70.00 26.4307 20.5428 0 
215 1 0.55 70.00 8.3854 19.1412 0 
216 1 0.52 70.00 11.4585 7.6138 0 
217 1 0.46 70.00 6.2060 13.5773 0 
218 1 0.47 70.00 3.3284 20.8721 0 
219 1 0.43 70.00 12.4715 20.2808 0 
220 1 0.50 70.00 20.5923 9.4721 0 
221 1 0.51 70.00 12.9455 11.2836 0 
222 1 0.52 70.00 9.7027 3.4461 0 
223 1 0.52 70.00 6.4761 9.8813 0 
224 1 0.47 70.00 8.3383 11.9265 0 
225 1 0.45 70.00 21.3092 19.7110 0 
226 1 0.45 70.00 9.1912 1.4906 0 
227 1 0.46 70.00 20.9857 20.1586 0 
228 1 0.46 70.00 21.5126 2.8772 0 
229 1 0.48 70.00 10.5243 18.4886 0 
230 1 0.53 70.00 21.4900 5.0521 0 
231 1 0.50 70.00 6.2283 2.0040 0 
232 1 0.46 70.00 6.4648 0.8932 0 
233 1 0.41 70.00 21.8846 1.2628 0 
234 1 0.49 70.00 16.2635 9.6268 0 
235 1 0.44 70.00 8.1850 7.4090 0 
236 1 0.46 70.00 9.8127 13.0963 0 
237 1 0.46 70.00 15.7170 4.9555 0 
238 1 0.46 70.00 9.1074 8.5103 0 
239 1 0.50 70.00 17.2382 4.5848 0 
240 1 0.49 70.00 24.3606 0.5380 0 
241 1 0.45 70.00 24.1231 2.9471 0 
242 1 0.50 70.00 17.9757 8.4616 0 
243 1 0.42 70.00 3.6172 4.8338 0 
244 1 0.44 70.00 9.8468 8.5195 0 
245 1 0.47 70.00 26.3760 4.1852 0 
246 1 0.45 70.00 4.8622 7.0976 0 
247 1 0.42 70.00 27.1252 18.9162 0 
248 1 0.48 70.00 15.7798 5.2614 0 
249 1 0.45 70.00 2.8862 17.2836 0 
250 1 0.48 70.00 6.8395 17.7560 0 
251 1 0.50 70.00 14.0590 11.7844 0 
252 1 0.46 70.00 24.6047 1.1363 0 
253 1 0.44 70.00 0.5861 15.4444 0 
254 1 0.42 70.00 16.8394 5.3970 0 
255 1 0.50 70.00 1.3015 11.7005 0 
256 1 0.47 70.00 13.4435 8.5616 0 
257 1 0.46 70.00 20.5541 18.1339 0 
258 1 0.44 70.00 6.5662 8.7705 0 
259 1 0.43 70.00 12.7927 0.7576 0 
260 1 0.50 70.00 2.9911 19.2377 0 
261 1 0.53 70.00 13.0021 3.6048 0 
262 1 0.47 70.00 23.9924 19.0764 0 
263 1 0.46 70.00 17.1784 6.6348 0 
264 1 0.46 70.00 15.5940 8.5944 0 
265 1 0.46 70.00 2.1683 16.4140 0 
266 1 0.45 70.00 12.5975 13.5541 0 
267 1 0.49 70.00 11.2871 12.2908 0 
268 1 0.49 70.00 14.5870 1.8391 0 
269 1 0.42 70.00 7.4723 8.5184 0 
270 1 0.46 70.00 19.8070 5.3198 0 
271 1 0.50 70.00 25.1939 18.9941 0 
272 1 0.51 70.00 6.0887 19.8661 0 
273 1 0.44 70.00 14.1608 0.5611 0 
274 1 0.45 70.00 1.0754 14.6894 0 
275 1 0.47 70.00 12.4086 10.3450 0 
276 1 0.50 70.00 16.2072 13.7553 0 
277 1 0.48 70.00 23.8489 5.6536 0 
278 1 0.46 70.00 22.0945 6.2669 0 
279 1 0.53 70.00 5.2913 2.9704 0 
280 1 0.46 70.00 22.5690 14.5700 0 
281 1 0.44 70.00 10.4797 0.8361 0 
282 1 0.47 70.00 6.6900 16.9584 0 
283 1 0.50 70.00 13.4865 6.3250 0 
284 1 0.48 70.00 26.6475 1.1349 0 
285 1 0.51 70.00 5.8856 2.1791 0 
286 1 0.48 70.00 15.4181 3.6706 0 
287 1 0.47 70.00 3.9796 6.6590 0 
288 1 0.43 70.00 23.2084 10.0583 0 
289 1 0.48 70.00 1.6277 11.3223 0 
290 1 0.48 70.00 5.0418 14.9866 0 
291 1 0.49 70.00 6.9059 11.7093 0 
292 1 0.45 70.00 26.8092 5.1510 0 
293 1 0.55 70.00 10.3241 7.1595 0 
294 1 0.46 70.00 16.5423 16.1062 0 
295 1 0.47 70.00 22.2245 7.6463 0 
296 1 0.47 70.00 27.0676 12.6482 0 
297 1 0.53 70.00 15.6574 11.8474 0 
298 1 0.50 70.00 23.1109 15.7902 0 
299 1 0.47 70.00 11.3084 8.4697 0 
300 1 0.46 70.00 15.2719 0.9188 0 
301 1 0.47 70.00 5.0504 8.7777 0 
302 1 0.50 70.00 5.4968 5.5505 0 
303 1 0.46 70.00 26.9796 14.5334 0 
304 1 0.43 70.00 22.1137 9.6664 0 
305 1 0.42 70.00 3.8615 18.1339 0 
306 1 0.49 70.00 20.4518 5.4190 0 
307 1 0.49 70.00 7.5243 7.8994 0 
308 1 0.48 70.00 11.9575 13.6402 0 
309 1 0.47 70.00 12.5546 5.1183 0 
310 1 0.48 70.00 5.7269 7.3788 0 
311 1 0.49 70.00 4.6321 8.9228 0 
312 1 0.54 70.00 6.9194 18.5943 0 
313 1 0.47 70.00 4.8691 8.9553 0 
314 1 0.47 70.00 13.8886 7.2266 0 
315 1 0.50 70.00 8.6498 4.9690 0 
316 1 0.45 70.00 4.9424 8.2737 0 
317 1 0.47 70.00 19.3322 15.1185 0 
318 1 0.48 70.00 9.8630 19.4845 0 
319 1 0.45 70.00 1.4427 15.5177 0 
320 1 0.47 70.00 22.5766 5.6821 0 
321 1 0.45 70.00 3.6706 15.8881 0 
322 1 0.52 70.00 21.0056 15.2201 0 
323 1 0.47 70.00 8.9248 19.4144 0 
324 1 0.47 70.00 2.8146 18.2745 0 
325 1 0.45 70.00 7.7625 2.0184 0 
326 1 0.53 70.00 27.1599 2.7008 0 
327 1 0.50 70.00 8.8136 0.7771 0 
328 1 0.47 70.00 19.8621 20.1976 0 
329 1 0.50 70.00 1.9426 1.3422 0 
330 1 0.49 70.00 12.4789 17.1671 0 
331 1 0.47 70.00 17.8543 11.4919 0 
332 1 0.44 70.00 16.4945 6.9973 0 
333 1 0.47 70.00 26.2570 7.4770 0 
334 1 0.49 70.00 7.5081 3.8602 0 
335 1 0.49 70.00 2.7774 6.7266 0 
336 1 0.39 70.00 27.0061 8.5630 0 
337 1 0.45 70.00 20.0489 2.8884 0 
338 1 0.50 70.00 4.1542 8.6771 0 
339 1 0.45 70.00 25.9762 21.2334 0 
340 1 0.51 70.00 13.5426 6.6006 0 
341 1 0.50 70.00 25.5980 7.3063 0 
342 1 0.49 70.00 2.2167 11.6373 0 
343 1 0.51 70.00 13.6289 13.6366 0 
344 1 0.53 70.00 27.5772 16.4046 0 
345 1 0.48 70.00 22.1632 15.5540 0 
346 1 0.44 70.00 25.7990 16.4172 0 
347 1 0.46 70.00 22.6917 14.8200 0 
348 1 0.46 70.00 8.3628 20.7830 0 
349 1 0.49 70.00 23.3111 11.3990 0 
350 1 0.43 70.00 6.8279 13.6570 0 
351 1 0.49 70.00 9.7616 13.9258 0 
352 1 0.47 70.00 21.3644 7.5815 0 
353 1 0.45 70.00 22.4576 1.4191 0 
354 1 0.50 70.00 8.5737 16.1810 0 
355 1 0.49 70.00 1.3827 2.3446 0 
356 1 0.47 70.00 6.5168 16.6196 0 
357 1 0.44 70.00 19.3684 5.6302 0 
358 1 0.46 70.00 25.1609 1.9984 0 
359 1 0.51 70.00 17.7643 6.8534 0 
360 1 0.51 70.00 11.3658 1.5373 0 
361 1 0.44 70.00 26.8736 6.4730 0 
362 1 0.48 70.00 12.1049 18.5338 0 
363 1 0.46 70.00 17.1302 19.4719 0 
364 1 0.45 70.00 1.6137 1.7093 0 
365 1 0.51 70.00 27.1451 21.0668 0 
366 1 0.47 70.00 9.6123 17.8840 0 
367 1 0.46 70.00 15.3397 13.4297 0 
368 1 0.46 70.00 0.7520 9.3966 0 
369 1 0.46 70.00 15.3016 21.5025 0 
370 1 0.37 70.00 23.0794 10.7357 0 
371 1 0.42 70.00 6.0345 10.7611 0 
372 1 0.50 70.00 0.8736 9.8682 0 
373 1 0.47 70.00 11.1105 17.0501 0 
374 1 0.45 70.00 27.6555 3.0163 0 
375 1 0.50 70.00 26.0325 18.0884 0 
376 1 0.54 70.00 7.9480 21.2586 0 
377 1 0.54 70.00 19.8011 5.0771 0 
378 1 0.43 70.00 16.1011 19.4585 0 
379 1 0.48 70.00 27.3865 14.1756 0 
380 1 0.42 70.00 27.2701 1.3550 0 
381 1 0.47 70.00 21.4590 13.9772 0 
382 1 0.47 70.00 22.8520 10.4077 0 
383 1 0.43 70.00 8.5268 21.3433 0 
384 1 0.45 70.00 26.7329 12.7906 0 
385 1 0.45 70.00 7.7943 4.4147 0 
386 1 0.45 70.00 2.3985 17.8004 0 
387 1 0.44 70.00 23.4823 6.8947 0 
388 1 0.51 70.00 22.3079 5.2596 0 
389 1 0.51 70.00 17.9006 4.4279 0 
390 1 0.47 70.00 14.8771 20.5195 0 
391 1 0.46 70.00 27.2035 13.9558 0 
392 1 0.48 70.00 5.8528 18.3815 0 
393 1 0.44 70.00 6.2061 18.4446 0 
394 1 0.52 70.00 19.3296 7.7821 0 
395 1 0.45 70.00 17.5752 2.2772 0 
396 1 0.41 70.00 7.0121 14.9543 0 
397 1 0.41 70.00 24.7965 20.9122 0 
398 1 0.43 70.00 2.8968 21.2225 0 
399 1 0.45 70.00 21.0326 9.7679 0 
400 1 0.51 70.00 6.6723 2.6559 0 
401 1 0.45 70.00 9.5413 12.2344 0 
402 1 0.45 70.00 2.5422 16.2785 0 
403 1 0.52 70.00 10.1143 20.1650 0 
404 1 0.49 70.00 8.1149 10.2128 0 
405 1 0.50 70.00 2.7296 14.4856 0 
406 1 0.45 70.00 14.0964 20.8770 0 
407 1 0.48 70.00 26.2479 8.8728 0 
408 1 0.47 70.00 1.5463 0.8712 0 
409 1 0.51 70.00 27.0093 4.3422 0 
410 1 0.48 70.00 26.3587 5.8339 0 
411 1 0.48 70.00 25.8917 8.0373 0 
412 1 0.52 70.00 12.3874 3.8824 0 
413 1 0.50 70.00 16.5884 5.4362 0 
414 1 0.48 70.00 3.3716 4.0746 0 
415 1 0.53 70.00 14.8921 2.6462 0 
416 1 0.53 70.00 18.0738 14.3969 0 
417 1 0.42 70.00 2.6052 17.2381 0 
418 1 0.46 70.00 17.2772 13.1587 0 
419 1 0.50 70.00 12.4647 0.7231 0 
420 1 0.47 70.00 13.1093 5.8643 0 
421 1 0.45 70.00 3.9780 5.3051 0 
422 1 0.52 70.00 7.0334 17.3807 0 
423 1 0.44 70.00 2.4999 14.9093 0 
424 1 0.50 70.00 14.9846 1.2872 0 
425 1 0.49 70.00 17.3062 11.6292 0 
426 1 0.48 70.00 7.7191 14.8474 0 
427 1 0.47 70.00 1.4793 13.9534 0 
428 1 0.46 70.00 26.6122 16.6839 0 
429 1 0.49 70.00 5.9031 1.4624 0 
430 1 0.46 70.00 4.2655 21.4053 0 
431 1 0.49 70.00 12.3875 19.7033 0 
432 1 0.48 70.00 10.2381 8.3126 0 
433 1 0.48 70.00 18.1005 19.3110 0 
434 1 0.42 70.00 25.5006 21.4321 0 
435 1 0.44 70.00 5.8463 10.1212 0 
436 1 0.53 70.00 13.8120 4.9994 0 
437 1 0.47 70.00 19.2217 1.7222 0 
438 1 0.45 70.00 19.4080 14.4452 0 
439 1 0.47 70.00 17.9980 14.0720 0 
440 1 0.45 70.00 2.1223 7.8744 0 
441 1 0.49 70.00 21.1149 12.5975 0 
442 1 0.49 70.00 2.1072 2.1692 0 
443 1 0.50 70.00 27.2567 10.0891 0 
444 1 0.48 70.00 7.4082 4.9873 0 
445 1 0.48 70.00 13.3616 8.9639 0 
446 1 0.50 70.00 15.2650 11.8140 0 
447 1 0.51 70.00 6.2388 14.9449 0 
448 1 0.53 70.00 26.2275 4.3881 0 
449 1 0.50 70.00 21.1810 11.8176 0 
450 1 0.43 70.00 17.4585 16.5482 0 
451 1 0.44 70.00 14.4444 8.8351 0 
452 1 0.47 70.00 8.4867 20.9570 0 
453 1 0.43 70.00 16.9919 16.2098 0 
454 1 0.45 70.00 15.9089 16.1095 0 
455 1 0.45 70.00 8.7221 8.8337 0 
456 1 0.48 70.00 22.8207 6.9184 0 
457 1 0.48 70.00 10.8475 10.7282 0 
458 1 0.44 70.00 12.7851 8.4402 0 
459 1 0.48 70.00 21.8480 1.5709 0 
460 1 0.46 70.00 12.9662 12.1792 0 
461 1 0.45 70.00 17.5536 16.8370 0 
462 1 0.46 70.00 13.2379 11.2216 0 
463 1 0.49 70.00 19.7062 20.4689 0 
464 1 0.51 70.00 23.4289 14.4371 0 
465 1 0.52 70.00 22.2511 18.6085 0 
466 1 0.48 70.00 21.5394 8.9733 0 
467 1 0.42 70.00 6.6008 21.3223 0 
468 1 0.42 70.00 4.1681 19.9885 0 
469 1 0.53 70.00 25.3582 20.8449 0 
470 1 0.46 70.00 26.5156 3.9200 0 
471 1 0.52 70.00 23.4270 16.9290 0 
472 1 0.48 70.00 15.3378 21.1934 0 
473 1 0.44 70.00 1.4134 19.9770 0 
474 1 0.46 70.00 26.4365 6.9921 0 
475 1 0.49 70.00 3.3597 14.2681 0 
476 1 0.47 70.00 23.7971 7.4966 0 
477 1 0.44 70.00 20.8484 7.5731 0 
478 1 0.52 70.00 16.1466 9.1076 0 
479 1 0.50 70.00 22.6458 21.2039 0 
480 1 0.47 70.00 18.4392 4.5977 0 
481 1 0.45 70.00 21.1747 19.2855 0 
482 1 0.52 70.00 0.9170 15.6236 0 
483 1 0.48 70.00 20.5972 0.9023 0 
484 1 0.46 70.00 0.8076 9.1408 0 
485 1 0.49 70.00 2.2081 8.0951 0 
486 1 0.47 70.00 4.7680 4.1546 0 
487 1 0.47 70.00 23.8391 8.3204 0 
488 1 0.49 70.00 11.3399 19.4335 0 
489 1 0.47 70.00 11.3571 3.3064 0 
490 1 0.51 70.00 2.7212 12.9373 0 
491 1 0.44 70.00 17.5761 13.1028 0 
492 1 0.43 70.00 9.0550 21.1916 0 
493 1 0.47 70.00 4.2353 2.6148 0 
494 1 0.45 70.00 15.5366 19.3911 0 
495 1 0.48 70.00 2.6607 15.6726 0 
496 1 0.48 70.00 4.5161 15.7959 0 
497 1 0.46 70.00 0.8645 5.9811 0 
498 1 0.45 70.00 3.2137 16.4357 0 
499 1 0.46 70.00 26.6550 4.9693 0 
500 1 0.42 70.00 11.1665 11.6392 0 
501 1 0.47 70.00 24.5492 15.3210 0 
502 1 0.45 70.00 7.2350 5.8168 0 
503 1 0.47 70.00 26.8591 19.2364 0 
504 1 0.44 70.00 12.1336 14.7611 0 
505 1 0.47 70.00 9.4006 14.6765 0 
506 1 0.47 70.00 13.4173 18.7846 0 
507 1 0.44 70.00 26.4202 17.4504 0 
508 1 0.48 70.00 3.5846 12.6424 0 
509 1 0.49 70.00 23.2907 6.4840 0 
510 1 0.44 70.00 0.6218 15.7839 0 
511 1 0.54 70.00 25.6439 16.9840 0 
512 1 0.43 70.00 6.5102 6.5617 0 
513 1 0.47 70.00 22.2775 7.0479 0 
514 1 0.45 70.00 14.7119 8.9417 0 
515 1 0.46 70.00 16.5521 15.6806 0 
516 1 0.49 70.00 20.6961 1.2147 0 
517 1 0.42 70.00 24.7775 18.3619 0 
518 1 0.48 70.00 21.7803 16.1631 0 
519 1 0.50 70.00 10.7981 19.5168 0 
520 1 0.45 70.00 18.4084 10.4165 0 
521 1 0.42 70.00 18.7144 15.0829 0 
522 1 0.49 70.00 8.0929 13.3378 0 
523 1 0.45 70.00 13.0743 18.2872 0 
524 1 0.48 70.00 9.1329 18.1886 0 
525 1 0.39 70.00 10.9804 18.8362 0 
526 1 0.42 70.00 9.4018 7.2810 0 
527 1 0.46 70.00 2.5519 20.0024 0 
528 1 0.49 70.00 25.1371 16.5016 0 
529 1 0.50 70.00 14.0893 7.9416 0 
530 1 0.44 70.00 26.1259 16.2460 0 
531 1 0.48 70.00 2.4673 4.6967 0 
532 1 0.46 70.00 25.8637 8.8124 0 
533 1 0.46 70.00 26.1247 16.8738 0 
534 1 0.45 70.00 20.2759 8.6846 0 
535 1 0.44 70.00 12.2720 1.9140 0 
536 1 0.43 70.00 3.8678 11.5697 0 
537 1 0.46 70.00 8.1681 20.8522 0 
538 1 0.43 70.00 27.7868 13.9605 0 
539 1 0.49 70.00 23.4184 6.1797 0 
540 1 0.44 70.00 25.9844 7.2795 0 
541 1 0.55 70.00 13.9924 5.2885 0 
542 1 0.46 70.00 21.4544 15.2234 0 
543 1 0.50 70.00 21.6010 18.8093 0 
544 1 0.48 70.00 2.8783 1.2950 0 
545 1 0.45 70.00 24.1045 6.3373 0 
546 1 0.50 70.00 12.5648 9.6120 0 
547 1 0.45 70.00 21.1667 1.5024 0 
548 1 0.47 70.00 2.9776 8.2250 0 
549 1 0.47 70.00 2.3596 3.5229 0 
550 1 0.44 70.00 14.8314 4.0933 0 
551 1 0.43 70.00 3.8948 8.5242 0 
552 1 0.51 70.00 10.7791 6.9384 0 
553 1 0.43 70.00 13.0348 7.3572 0 
554 1 0.46 70.00 12.7124 15.3412 0 
555 1 0.44 70.00 15.7993 11.3776 0 
556 1 0.45 70.00 16.3167 20.7099 0 
557 1 0.47 70.00 12.0811 12.1596 0 
558 1 0.43 70.00 14.0946 19.0000 0 
559 1 0.48 70.00 6.1577 8.3483 0 
560 1 0.44 70.00 2.6756 6.9139 0 
561 1 0.49 70.00 21.7382 3.9741 0 
562 1 0.43 70.00 12.4178 4.6658 0 
563 1 0.50 70.00 12.6532 19.2491 0 
564 1 0.48 70.00 6.4847 7.3127 0 
565 1 0.50 70.00 7.7050 18.0287 0 
566 1 0.48 70.00 26.8945 2.0028 0 
567 1 0.47 70.00 5.4739 4.1865 0 
568 1 0.53 70.00 20.4572 9.9453 0 
569 1 0.48 70.00 3.8880 11.8941 0 
570 1 0.48 70.00 25.7026 15.3945 0 
571 1 0.49 70.00 20.3302 19.4097 0 
572 1 0.51 70.00 8.4775 10.7013 0 
573 1 0.44 70.00 3.3217 20.0317 0 
574 1 0.43 70.00 3.9047 4.9938 0 
575 1 0.54 70.00 7.2113 19.2006 0 
576 1 0.46 70.00 14.7651 14.8103 0 
577 1 0.41 70.00 22.6607 7.3952 0 
578 1 0.46 70.00 15.7439 12.8561 0 
579 1 0.51 70.00 10.1310 9.8593 0 
580 1 0.51 70.00 6.3404 16.9357 0 
581 1 0.43 70.00 11.9635 2.5847 0 
582 1 0.48 70.00 3.1329 1.2480 0 
583 1 0.42 70.00 20.6766 18.6129 0 
584 1 0.46 70.00 9.2876 11.4814 0 
585 1 0.50 70.00 14.2960 4.5438 0 
586 1 0.47 70.00 15.8680 6.1980 0 
587 1 0.51 70.00 21.2500 8.1961 0 
588 1 0.46 70.00 10.4625 3.3505 0 
589 1 0.49 70.00 21.9301 21.4500 0 
590 1 0.45 70.00 0.6061 5.6183 0 
591 1 0.44 70.00 2.5888 5.8232 0 
592 1 0.47 70.00 21.4340 2.4851 0 
593 1 0.50 70.00 10.4183 2.0094 0 
594 1 0.44 70.00 2.4681 18.3475 0 
595 1 0.44 70.00 5.5151 20.7056 0 
596 1 0.47 70.00 8.3369 1.0250 0 
597 1 0.46 70.00 24.4276 14.2693 0 
598 1 0.46 70.00 10.1057 4.0095 0 
599 1 0.44 70.00 18.0668 3.4200 0 
600 1 0.49 70.00 17.7936 13.0797 0 
601 1 0.45 70.00 15.9036 20.2421 0 
602 1 0.44 70.00 20.2324 21.6909 0 
603 1 0.45 70.00 17.1113 16.8651 0 
604 1 0.41 70.00 2.8640 7.8572 0 
605 1 0.45 70.00 10.4146 16.1500 0 
606 1 0.41 70.00 2.0549 15.8730 0 
607 1 0.51 70.00 13.7853 7.0545 0 
608 1 0.46 70.00 19.1443 15.8604 0 
609 1 0.46 70.00 26.9037 8.8688 0 
610 1 0.51 70.00 22.5585 12.9682 0 
611 1 0.45 70.00 1.4087 3.1934 0 
612 1 0.46 70.00 26.3428 17.8632 0 
613 1 0.43 70.00 17.0372 21.1561 0 
614 1 0.47 70.00 13.9081 13.3789 0 
615 1 0.52 70.00 10.8953 7.5862 0 
616 1 0.42 70.00 16.4646 4.9462 0 
617 1 0.43 70.00 0.5300 1.4103 0 
618 1 0.50 70.00 19.3050 19.8860 0 
619 1 0.47 70.00 18.8479 2.2577 0 
620 1 0.50 70.00 17.5555 20.9736 0 
621 1 0.50 70.00 10.2279 21.0177 0 
622 1 0.45 70.00 10.6536 18.6643 0 
623 1 0.46 70.00 6.1588 5.3707 0 
624 1 0.49 70.00 23.0925 13.7842 0 
625 1 0.49 70.00 7.0115 19.5233 0 
626 1 0.43 70.00 27.0884 20.5595 0 
627 1 0.48 70.00 4.7293 9.5489 0 
628 1 0.48 70.00 23.4426 9.6037 0 
629 1 0.46 70.00 7.5756 10.9835 0 
630 1 0.43 70.00 4.7671 3.3167 0 
631 1 0.43 70.00 13.4840 14.7392 0 
632 1 0.50 70.00 0.9640 13.7110 0 
633 1 0.51 70.00 0.6668 12.6609 0 
634 1 0.45 70.00 20.6608 16.5291 0 
635 1 0.51 70.00 25.7978 1.0569 0 
636 1 0.50 70.00 6.7519 4.0613 0 
637 1 0.48 70.00 17.0293 4.4311 0 
638 1 0.51 70.00 26.1272 1.7968 0 
639 1 0.45 70.00 5.8956 6.0807 0 
640 1 0.47 70.00 13.8060 6.7104 0 
641 1 0.49 70.00 21.0234 12.3341 0 
642 1 0.46 70.00 26.2492 7.0789 0 
643 1 0.46 70.00 8.4910 14.8058 0 
644 1 0.50 70.00 3.0623 16.6384 0 
645 1 0.47 70.00 6.1304 14.6770 0 
646 1 0.41 70.00 27.4261 4.9952 0 
647 1 0.45 70.00 15.0089 0.6822 0 
648 1 0.47 70.00 24.0866 5.5689 0 
649 1 0.46 70.00 4.7100 12.7525 0 
650 1 0.47 70.00 14.8212 9.5235 0 
651 1 0.47 70.00 8.3003 0.7365 0 
652 1 0.51 70.00 20.6030 9.7270 0 
653 1 0.45 70.00 10.1440 11.4283 0 
654 1 0.47 70.00 13.5302 16.4210 0 
655 1 0.50 70.00 11.0369 9.0562 0 
656 1 0.48 70.00 16.3128 6.1453 0 
657 1 0.47 70.00 3.2035 18.9354 0 
658 1 0.47 70.00 26.3526 1.5987 0 
659 1 0.45 70.00 19.2492 3.8933 0 
660 1 0.44 70.00 27.5599 7.2640 0 
661 1 0.47 70.00 16.1305 7.4855 0 
662 1 0.47 70.00 18.1889 20.1384 0 
663 1 0.48 70.00 14.0507 10.4997 0 
664 1 0.48 70.00 3.4987 5.6893 0 
665 1 0.49 70.00 15.0656 11.3330 0 
666 1 0.49 70.00 5.9293 3.4684 0 
667 1 0.48 70.00 10.5683 13.8454 0 
668 1 0.45 70.00 21.7181 16.8355 0 
669 1 0.47 70.00 21.1807 9.4102 0 
670 1 0.54 70.00 16.1448 1.3209 0 
671 1 0.47 70.00 9.2582 19.4320 0 
672 1 0.49 70.00 18.9440 20.3112 0 
673 1 0.48 70.00 10.4749 2.6958 0 
674 1 0.41 70.00 23.8011 15.6700 0 
675 1 0.47 70.00 14.4969 18.4061 0 
676 1 0.46 70.00 9.4292 16.2516 0 
677 1 0.45 70.00 19.4353 18.1539 0 
678 1 0.46 70.00 23.8460 21.4344 0 
679 1 0.48 70.00 16.5947 7.6225 0 
680 1 0.50 70.00 13.8638 7.4762 0 
681 1 0.47 70.00 21.5041 13.3434 0 
682 1 0.47 70.00 18.8245 7.1181 0 
683 1 0.52 70.00 1.3577 10.9846 0 
684 1 0.42 70.00 21.8675 14.3387 0 
685 1 0.44 70.00 6.5035 5.6213 0 
686 1 0.48 70.00 2.8248 13.4298 0 
687 1 0.56 70.00 7.1989 7.8013 0 
688 1 0.49 70.00 20.0650 7.2548 0 
689 1 0.51 70.00 26.5785 5.7818 0 
690 1 0.51 70.00 1.2624 14.0454 0 
691 1 0.48 70.00 3.1051 2.4741 0 
692 1 0.50 70.00 26.9614 12.2579 0 
693 1 0.47 70.00 25.4717 7.1472 0 
694 1 0.50 70.00 3.0414 2.1185 0 
695 1 0.43 70.00 8.5273 2.1731 0 
696 1 0.48 70.00 18.8655 14.2713 0 
697 1 0.51 70.00 18.0109 17.6220 0 
698 1 0.47 70.00 13.3394 20.7607 0 
699 1 0.49 70.00 18.7602 9.4312 0 
700 1 0.48 70.00 16.7589 11.8192 0 
701 1 0.46 70.00 9.6748 18.3195 0 
702 1 0.49 70.00 24.3826 12.1142 0 
703 1 0.50 70.00 1.6912 4.0283 0 
704 1 0.46 70.00 6.5639 2.9325 0 
705 1 0.46 70.00 7.9552 2.9345 0 
706 1 0.46 70.00 7.3073 1.9652 0 
707 1 0.44 70.00 20.2678 6.1012 0 
708 1 0.45 70.00 22.9213 16.4496 0 
709 1 0.53 70.00 21.8965 17.2063 0 
710 1 0.47 70.00 19.4065 16.0195 0 
711 1 0.47 70.00 14.3005 5.2119 0 
712 1 0.47 70.00 7.1884 3.6596 0 
713 1 0.50 70.00 12.5438 17.8078 0 
714 1 0.46 70.00 18.0842 6.5778 0 
715 1 0.45 70.00 27.5127 15.8852 0 
716 1 0.41 70.00 18.9188 2.0027 0 
717 1 0.48 70.00 15.9651 10.6989 0 
718 1 0.47 70.00 11.1127 2.5868 0 
719 1 0.42 70.00 6.7754 1.9960 0 
720 1 0.43 70.00 8.9567 3.7953 0 
721 1 0.47 70.00 8.3677 15.2386 0 
722 1 0.46 70.00 11.0605 19.5632 0 
723 1 0.53 70.00 6.3378 17.5638 0 
724 1 0.45 70.00 19.1713 16.7438 0 
725 1 0.51 70.00 22.7232 11.9561 0 
726 1 0.48 70.00 16.5001 1.8332 0 
727 1 0.41 70.00 26.8051 5.8341 0 
728 1 0.41 70.00 27.0454 5.0760 0 
729 1 0.47 70.00 26.8306 17.3011 0 
730 1 0.41 70.00 2.5485 10.0820 0 
731 1 0.47 70.00 24.5235 9.8714 0 
732 1 0.46 70.00 6.7138 10.8766 0 
733 1 0.43 70.00 8.9631 6.8657 0 
734 1 0.49 70.00 10.7696 15.7613 0 
735 1 0.48 70.00 24.8159 4.1212 0 
736 1 0.46 70.00 1.8957 15.5665 0 
737 1 0.47 70.00 11.1560 13.0545 0 
738 1 0.48 70.00 5.5154 14.2424 0 
739 1 0.46 70.00 19.0586 8.5169 0 
740 1 0.42 70.00 10.2013 2.4051 0 
741 1 0.48 70.00 16.2005 10.1091 0 
742 1 0.44 70.00 11.1673 18.7335 0 
743 1 0.47 70.00 17.9702 15.7355 0 
744 1 0.44 70.00 14.2277 18.6840 0 
745 1 0.47 70.00 11.5182 2.7477 0 
746 1 0.45 70.00 20.2407 11.5948 0 
747 1 0.46 70.00 21.5497 5.9592 0 
748 1 0.52 70.00 23.7203 20.7982 0 
749 1 0.45 70.00 8.9329 12.3743 0 
750 1 0.45 70.00 0.8519 21.7791 0 
751 1 0.51 70.00 17.2590 7.5586 0 
752 1 0.53 70.00 12.4693 17.5076 0 
753 1 0.44 70.00 20.9317 17.3011 0 
754 1 0.46 70.00 12.4878 2.7254 0 
755 1 0.45 70.00 20.3935 1.1538 0 
756 1 0.46 70.00 21.9557 5.0277 0 
757 1 0.46 70.00 22.8649 18.0262 0 
758 1 0.51 70.00 7.5259 11.5711 0 
759 1 0.48 70.00 16.7769 20.8951 0 
760 1 0.48 70.00 5.1603 18.6574 0 
761 1 0.53 70.00 15.0791 18.8070 0 
762 1 0.47 70.00 6.7930 13.2992 0 
763 1 0.50 70.00 12.4341 7.1516 0 
764 1 0.43 70.00 7.7994 12.7502 0 
765 1 0.45 70.00 16.1303 9.4051 0 
766 1 0.46 70.00 16.0817 8.1989 0 
767 1 0.45 70.00 0.8190 3.4413 0 
768 1 0.50 70.00 27.0959 5.4239 0 
769 1 0.47 70.00 10.6417 19.1220 0 
770 1 0.48 70.00 3.8227 3.6971 0 
771 1 0.47 70.00 25.2257 16.9632 0 
772 1 0.50 70.00 1.5961 18.7015 0 
773 1 0.49 70.00 14.2205 13.0299 0 
774 1 0.43 70.00 4.1953 9.1789 0 
775 1 0.42 70.00 17.6768 6.5027 0 
776 1 0.49 70.00 6.3427 3.1654 0 
777 1 0.50 70.00 13.9834 2.6333 0 
778 1 0.51 70.00 14.6635 1.0900 0 
779 1 0.48 70.00 18.5634 4.7831 0 
780 1 0.49 70.00 22.1202 14.6035 0 
781 1 0.44 70.00 25.5540 4.1220 0 
782 1 0.47 70.00 17.6328 7.7456 0 
783 1 0.51 70.00 5.4800 17.7604 0 
784 1 0.44 70.00 21.6986 14.7251 0 
785 1 0.47 70.00 10.3209 5.2894 0 
786 1 0.44 70.00 13.8111 12.6775 0 
787 1 0.52 70.00 5.9388 16.2824 0 
788 1 0.52 70.00 10.2221 11.7660 0 
789 1 0.56 70.00 5.5600 15.8563 0 
790 1 0.49 70.00 4.6043 2.6107 0 
791 1 0.54 70.00 14.4366 20.2304 0 
792 1 0.48 70.00 20.3130 21.0622 0 
793 1 0.43 70.00 22.1772 6.4495 0 
794 1 0.44 70.00 16.4671 11.1446 0 
795 1 0.54 70.00 14.0682 14.3763 0 
796 1 0.43 70.00 7.3000 16.4795 0 
797 1 0.43 70.00 9.6166 13.1427 0 
798 1 0.47 70.00 26.2780 20.7434 0 
799 1 0.48 70.00 13.8153 5.5104 0 
800 1 0.51 70.00 7.6277 11.8207 0 
801 1 0.47 70.00 27.5791 6.9477 0 
802 1 0.45 70.00 18.2160 5.1403 0 
803 1 0.45 70.00 19.1386 17.6474 0 
804 1 0.43 70.00 21.5939 12.5512 0 
805 1 0.47 70.00 3.5722 11.4717 0 
806 1 0.45 70.00 18.1532 1.9554 0 
807 1 0.48 70.00 0.9066 10.0742 0 
808 1 0.51 70.00 14.0144 10.1946 0 
809 1 0.45 70.00 3.1299 3.4649 0 
810 1 0.50 70.00 12.7626 5.9893 0 
811 1 0.49 70.00 2.3754 9.3684 0 
812 1 0.49 70.00 13.0231 10.4831 0 
813 1 0.50 70.00 27.1608 18.5062 0 
814 1 0.49 70.00 2.8763 1.6250 0 
815 1 0.47 70.00 24.4396 16.3997 0 
816 1 0.43 70.00 26.5251 9.8175 0 
817 1 0.49 70.00 17.7773 11.9468 0 
818 1 0.47 70.00 15.1514 16.0007 0 
819 1 0.46 70.00 21.3194 14.3757 0 
820 1 0.48 70.00 2.7115 15.3758 0 
821 1 0.42 70.00 12.4628 1.8345 0 
822 1 0.47 70.00 6.2509 6.0863 0 
823 1 0.49 70.00 26.1911 9.9311 0 
824 1 0.47 70.00 7.6824 10.6428 0 
825 1 0.46 70.00 0.5647 13.9492 0 
826 1 0.48 70.00 12.4951 8.2470 0 
827 1 0.44 70.00 4.0484 16.1699 0 
828 1 0.44 70.00 16.4286 16.7648 0 
829 1 0.51 70.00 18.1523 0.6479 0 
830 1 0.50 70.00 5.0601 2.8134 0 
831 1 0.44 70.00 6.2027 20.2363 0 
832 1 0.49 70.00 4.0366 17.7714 0 
833 1 0.42 70.00 26.5652 16.2687 0 
834 1 0.48 70.00 15.5195 20.1413 0 
835 1 0.42 70.00 0.5670 19.0369 0 
836 1 0.48 70.00 24.8256 17.1093 0 
837 1 0.49 70.00 11.8985 2.2983 0 
838 1 0.44 70.00 11.8051 14.5895 0 
839 1 0.48 70.00 27.2593 16.4743 0 
840 1 0.44 70.00 14.9001 5.6054 0 
841 1 0.47 70.00 5.2214 12.6089 0 
842 1 0.45 70.00 19.0205 18.1996 0 
843 1 0.54 70.00 5.9328 21.7120 0 
844 1 0.50 70.00 7.0853 7.1606 0 
845 1 0.48 70.00 13.1141 4.5994 0 
846 1 0.48 70.00 4.6369 13.6957 0 
847 1 0.46 70.00 14.6082 17.3536 0 
848 1 0.55 70.00 2.5830 11.0886 0 
849 1 0.49 70.00 1.3231 18.0487 0 
850 1 0.49 70.00 22.5579 0.6248 0 
851 1 0.50 70.00 13.6940 21.3246 0 