# LAMMPS data file for rigid bodies

1232 atoms

2 atom types

0.0 	 28.0 	 xlo xhi 
0.0 	 22.0 	 ylo yhi 
-1.0 	 1.0 	 zlo zhi 

Atoms

1 1 0.48 70.00 7.3316 17.1850 0 
2 1 0.44 70.00 10.0736 1.3742 0 
3 1 0.51 70.00 12.2073 12.0836 0 
4 1 0.48 70.00 1.5574 20.5009 0 
5 1 0.43 70.00 17.0044 20.2390 0 
6 1 0.45 70.00 20.5835 10.7951 0 
7 1 0.45 70.00 4.6843 13.7396 0 
8 1 0.41 70.00 17.1998 14.0254 0 
9 1 0.45 70.00 6.5356 20.7971 0 
10 1 0.49 70.00 24.3432 15.0487 0 
11 1 0.46 70.00 21.1809 3.0926 0 
12 1 0.46 70.00 12.4128 3.2003 0 
13 1 0.49 70.00 3.0355 1.2980 0 
14 1 0.44 70.00 5.7365 14.1805 0 
15 1 0.47 70.00 16.3218 19.7750 0 
16 1 0.48 70.00 25.0753 20.5501 0 
17 1 0.47 70.00 19.5278 18.6206 0 
18 1 0.45 70.00 26.1753 11.2027 0 
19 1 0.51 70.00 12.3406 20.3213 0 
20 1 0.45 70.00 5.4716 6.7101 0 
21 1 0.44 70.00 5.5005 4.8955 0 
22 1 0.47 70.00 23.7665 16.3430 0 
23 1 0.45 70.00 14.7698 13.2099 0 
24 1 0.45 70.00 14.2961 15.5171 0 
25 1 0.47 70.00 13.8531 20.9558 0 
26 1 0.48 70.00 8.4041 9.5703 0 
27 1 0.46 70.00 18.1096 20.3386 0 
28 1 0.46 70.00 13.8543 1.8511 0 
29 1 0.45 70.00 0.7757 13.7426 0 
30 1 0.47 70.00 20.9303 14.2637 0 
31 1 0.48 70.00 6.3589 19.0944 0 
32 1 0.45 70.00 14.5989 0.5697 0 
33 1 0.46 70.00 16.3764 9.7546 0 
34 1 0.45 70.00 25.0963 8.0495 0 
35 1 0.45 70.00 22.5042 6.9224 0 
36 1 0.46 70.00 6.1706 3.1665 0 
37 1 0.48 70.00 16.2688 6.0888 0 
38 1 0.44 70.00 14.7695 2.3681 0 
39 1 0.49 70.00 0.9050 11.4714 0 
40 1 0.44 70.00 5.0926 21.4019 0 
41 1 0.41 70.00 0.8397 2.3839 0 
42 1 0.44 70.00 2.9633 1.9465 0 
43 1 0.48 70.00 14.0455 18.7671 0 
44 1 0.50 70.00 2.4221 17.9574 0 
45 1 0.51 70.00 15.4975 15.3674 0 
46 1 0.44 70.00 7.7450 10.4992 0 
47 1 0.42 70.00 13.4581 17.5078 0 
48 1 0.42 70.00 1.7271 15.3678 0 
49 1 0.43 70.00 1.0273 4.2886 0 
50 1 0.42 70.00 23.1930 13.2055 0 
51 1 0.55 70.00 6.8130 7.5631 0 
52 1 0.56 70.00 16.5931 17.4812 0 
53 1 0.50 70.00 26.2424 18.7423 0 
54 1 0.48 70.00 10.0713 0.7573 0 
55 1 0.40 70.00 10.2895 0.5476 0 
56 1 0.46 70.00 25.4261 4.6157 0 
57 1 0.45 70.00 19.9867 12.8919 0 
58 1 0.43 70.00 11.6106 11.0044 0 
59 1 0.47 70.00 11.4391 13.1147 0 
60 1 0.50 70.00 12.3267 4.8046 0 
61 1 0.42 70.00 1.4353 1.5595 0 
62 1 0.51 70.00 8.5975 7.1512 0 
63 1 0.46 70.00 24.3633 9.6131 0 
64 1 0.46 70.00 21.5034 20.5810 0 
65 1 0.48 70.00 26.0169 1.3042 0 
66 1 0.49 70.00 9.5262 15.4942 0 
67 1 0.47 70.00 10.8381 14.7318 0 
68 1 0.45 70.00 12.1136 15.4923 0 
69 1 0.49 70.00 1.0671 0.8013 0 
70 1 0.41 70.00 13.6578 11.9841 0 
71 1 0.52 70.00 14.3621 9.6885 0 
72 1 0.45 70.00 8.8159 13.8403 0 
73 1 0.47 70.00 19.8774 16.3267 0 
74 1 0.53 70.00 16.7241 1.0227 0 
75 1 0.46 70.00 21.3846 6.5860 0 
76 1 0.49 70.00 13.3919 15.5282 0 
77 1 0.47 70.00 8.2958 17.4609 0 
78 1 0.46 70.00 2.9775 12.6646 0 
79 1 0.43 70.00 25.8949 12.6130 0 
80 1 0.52 70.00 8.2058 19.1840 0 
81 1 0.46 70.00 11.9079 9.0698 0 
82 1 0.49 70.00 12.2746 5.7965 0 
83 1 0.42 70.00 7.0292 20.8523 0 
84 1 0.49 70.00 21.6330 20.0761 0 
85 1 0.48 70.00 23.3541 19.1774 0 
86 1 0.47 70.00 9.0026 3.0199 0 
87 1 0.51 70.00 21.1955 5.1023 0 
88 1 0.46 70.00 9.2079 15.4347 0 
89 1 0.52 70.00 12.2398 16.2613 0 
90 1 0.52 70.00 12.4741 14.6961 0 
91 1 0.50 70.00 8.1830 19.8060 0 
92 1 0.52 70.00 22.7565 11.2751 0 
93 1 0.44 70.00 19.1832 2.9430 0 
94 1 0.47 70.00 26.8529 13.3481 0 
95 1 0.47 70.00 21.1771 10.9739 0 
96 1 0.47 70.00 7.7325 13.9332 0 
97 1 0.47 70.00 24.8447 17.7352 0 
98 1 0.46 70.00 7.4911 3.2725 0 
99 1 0.49 70.00 22.2374 7.9346 0 
100 1 0.51 70.00 19.9924 13.8646 0 
101 1 0.48 70.00 24.9297 20.8087 0 
102 1 0.50 70.00 8.5669 8.4895 0 
103 1 0.50 70.00 16.1072 16.6580 0 
104 1 0.48 70.00 25.0628 14.9514 0 
105 1 0.48 70.00 17.6553 10.7111 0 
106 1 0.47 70.00 5.0796 2.4020 0 
107 1 0.44 70.00 9.7244 7.3865 0 
108 1 0.46 70.00 20.0813 2.7574 0 
109 1 0.44 70.00 15.3958 4.1064 0 
110 1 0.48 70.00 10.3086 2.7030 0 
111 1 0.49 70.00 0.7022 17.7895 0 
112 1 0.49 70.00 5.5211 21.2711 0 
113 1 0.46 70.00 4.1744 8.4838 0 
114 1 0.47 70.00 19.7073 10.2890 0 
115 1 0.46 70.00 22.2577 6.6787 0 
116 1 0.44 70.00 23.7615 12.3027 0 
117 1 0.48 70.00 8.9166 17.2050 0 
118 1 0.48 70.00 4.1707 17.4774 0 
119 1 0.42 70.00 1.1482 16.4656 0 
120 1 0.47 70.00 22.4956 15.3369 0 
121 1 0.44 70.00 15.7634 7.1889 0 
122 1 0.46 70.00 7.6807 16.4734 0 
123 1 0.46 70.00 17.8187 17.8559 0 
124 1 0.46 70.00 16.4590 21.4906 0 
125 1 0.47 70.00 25.5063 1.2624 0 
126 1 0.44 70.00 25.6699 11.1141 0 
127 1 0.44 70.00 5.4048 2.5881 0 
128 1 0.47 70.00 21.0322 1.9930 0 
129 1 0.50 70.00 12.3753 19.2189 0 
130 1 0.48 70.00 6.5185 12.4154 0 
131 1 0.51 70.00 3.2143 17.6688 0 
132 1 0.45 70.00 2.1510 15.9901 0 
133 1 0.48 70.00 3.8195 6.1160 0 
134 1 0.39 70.00 21.2271 8.5187 0 
135 1 0.54 70.00 16.5598 5.0461 0 
136 1 0.48 70.00 11.9820 20.7496 0 
137 1 0.49 70.00 7.7742 19.2811 0 
138 1 0.44 70.00 12.5522 12.3187 0 
139 1 0.49 70.00 16.8429 2.5137 0 
140 1 0.43 70.00 16.3575 4.8426 0 
141 1 0.44 70.00 18.9558 21.7313 0 
142 1 0.40 70.00 12.8819 10.9248 0 
143 1 0.46 70.00 3.8038 13.9192 0 
144 1 0.46 70.00 26.8274 3.3563 0 
145 1 0.51 70.00 22.7626 8.6380 0 
146 1 0.47 70.00 10.6851 21.0351 0 
147 1 0.48 70.00 11.9108 7.1009 0 
148 1 0.49 70.00 14.5336 14.0454 0 
149 1 0.52 70.00 12.1432 9.0976 0 
150 1 0.44 70.00 10.5255 14.9845 0 
151 1 0.50 70.00 23.1670 9.7201 0 
152 1 0.43 70.00 1.8946 3.3374 0 
153 1 0.49 70.00 4.1931 16.8965 0 
154 1 0.46 70.00 15.2775 16.5349 0 
155 1 0.50 70.00 8.9382 10.4406 0 
156 1 0.51 70.00 11.8039 16.5625 0 
157 1 0.41 70.00 19.0998 20.0440 0 
158 1 0.45 70.00 21.2586 14.0140 0 
159 1 0.48 70.00 12.4183 11.8235 0 
160 1 0.49 70.00 26.7817 11.0512 0 
161 1 0.43 70.00 8.9656 13.0939 0 
162 1 0.53 70.00 15.9378 5.2984 0 
163 1 0.51 70.00 3.7317 17.5080 0 
164 1 0.49 70.00 2.4400 15.9246 0 
165 1 0.47 70.00 24.1862 20.1280 0 
166 1 0.42 70.00 15.6280 20.0187 0 
167 1 0.44 70.00 12.9763 5.7064 0 
168 1 0.47 70.00 13.1289 0.8053 0 
169 1 0.48 70.00 9.5953 19.2592 0 
170 1 0.45 70.00 2.9125 17.7746 0 
171 1 0.46 70.00 8.5078 15.7277 0 
172 1 0.44 70.00 1.8043 14.4560 0 
173 1 0.43 70.00 4.7693 21.7284 0 
174 1 0.50 70.00 26.4756 11.9445 0 
175 1 0.43 70.00 25.3757 15.8769 0 
176 1 0.47 70.00 9.1028 16.0256 0 
177 1 0.45 70.00 26.9038 1.4066 0 
178 1 0.45 70.00 15.8178 1.7538 0 
179 1 0.50 70.00 11.7972 3.1380 0 
180 1 0.48 70.00 7.4595 19.2446 0 
181 1 0.51 70.00 1.7072 9.2754 0 
182 1 0.51 70.00 16.9103 10.2891 0 
183 1 0.41 70.00 27.7234 9.4262 0 
184 1 0.47 70.00 23.6231 9.3712 0 
185 1 0.47 70.00 23.1148 14.8226 0 
186 1 0.49 70.00 10.2524 1.6745 0 
187 1 0.44 70.00 1.3205 1.3698 0 
188 1 0.49 70.00 2.9287 11.2062 0 
189 1 0.43 70.00 7.4784 12.6816 0 
190 1 0.51 70.00 21.8953 1.2358 0 
191 1 0.48 70.00 17.6815 17.5645 0 
192 1 0.47 70.00 19.9662 11.7921 0 
193 1 0.45 70.00 8.1270 6.7619 0 
194 1 0.46 70.00 7.4883 2.8124 0 
195 1 0.47 70.00 12.8432 5.2836 0 
196 1 0.43 70.00 3.1219 6.8350 0 
197 1 0.53 70.00 22.4224 18.9943 0 
198 1 0.47 70.00 12.6282 21.0525 0 
199 1 0.48 70.00 18.6071 6.4087 0 
200 1 0.50 70.00 6.9254 21.4840 0 
201 1 0.44 70.00 20.2034 21.4880 0 
202 1 0.46 70.00 5.9400 4.7051 0 
203 1 0.51 70.00 24.5700 1.6682 0 
204 1 0.45 70.00 14.0039 2.6764 0 
205 1 0.42 70.00 18.9890 18.3785 0 
206 1 0.48 70.00 1.0104 3.6374 0 
207 1 0.49 70.00 1.8566 20.3260 0 
208 1 0.45 70.00 1.8645 18.7992 0 
209 1 0.46 70.00 22.4880 16.4832 0 
210 1 0.47 70.00 24.5701 3.2820 0 
211 1 0.47 70.00 11.5344 13.3775 0 
212 1 0.49 70.00 8.5791 1.5138 0 
213 1 0.46 70.00 20.8715 2.3072 0 
214 1 0.49 70.00 4.3906 19.6749 0 
215 1 0.50 70.00 16.2201 9.5787 0 
216 1 0.47 70.00 1.8072 21.5652 0 
217 1 0.49 70.00 11.4760 15.2533 0 
218 1 0.50 70.00 2.3869 1.3679 0 
219 1 0.47 70.00 19.1620 17.7654 0 
220 1 0.48 70.00 4.2230 18.6645 0 
221 1 0.50 70.00 18.4529 20.6047 0 
222 1 0.47 70.00 6.9791 9.1983 0 
223 1 0.46 70.00 14.9003 2.8187 0 
224 1 0.47 70.00 21.8385 14.3636 0 
225 1 0.49 70.00 13.2150 7.5306 0 
226 1 0.48 70.00 9.0877 1.7994 0 
227 1 0.52 70.00 1.8847 14.0690 0 
228 1 0.47 70.00 8.9610 3.2693 0 
229 1 0.45 70.00 1.2256 2.2842 0 
230 1 0.44 70.00 27.0427 3.7393 0 
231 1 0.52 70.00 13.6309 3.6558 0 
232 1 0.49 70.00 9.4318 4.5052 0 
233 1 0.49 70.00 26.1461 19.4145 0 
234 1 0.51 70.00 6.4069 21.5179 0 
235 1 0.49 70.00 7.5472 1.7327 0 
236 1 0.46 70.00 19.9266 6.5943 0 
237 1 0.45 70.00 7.2191 13.6683 0 
238 1 0.43 70.00 5.7973 16.0784 0 
239 1 0.47 70.00 9.7890 4.5517 0 
240 1 0.53 70.00 26.2532 9.6570 0 
241 1 0.48 70.00 1.3048 2.9222 0 
242 1 0.47 70.00 24.6287 6.7699 0 
243 1 0.43 70.00 27.3825 10.4715 0 
244 1 0.48 70.00 8.5550 16.8156 0 
245 1 0.49 70.00 19.6823 4.6202 0 
246 1 0.45 70.00 1.0122 15.8805 0 
247 1 0.44 70.00 11.2716 12.6663 0 
248 1 0.47 70.00 3.8612 1.1652 0 
249 1 0.45 70.00 11.4163 16.9361 0 
250 1 0.49 70.00 22.2171 10.9575 0 
251 1 0.45 70.00 20.9519 7.0815 0 
252 1 0.47 70.00 20.3626 13.0952 0 
253 1 0.49 70.00 25.0440 0.7749 0 
254 1 0.47 70.00 2.3240 6.1993 0 
255 1 0.47 70.00 20.0055 0.5768 0 
256 1 0.42 70.00 22.0265 6.7292 0 
257 1 0.50 70.00 24.2720 7.5999 0 
258 1 0.50 70.00 7.0770 20.2856 0 
259 1 0.46 70.00 10.4197 14.4502 0 
260 1 0.49 70.00 19.1560 12.3991 0 
261 1 0.43 70.00 4.9044 7.5227 0 
262 1 0.50 70.00 2.6922 2.5299 0 
263 1 0.45 70.00 11.3154 15.7364 0 
264 1 0.49 70.00 1.4564 14.7784 0 
265 1 0.48 70.00 13.4952 1.1258 0 
266 1 0.47 70.00 8.0476 19.3490 0 
267 1 0.46 70.00 19.9569 8.5631 0 
268 1 0.49 70.00 25.5359 6.4582 0 
269 1 0.47 70.00 10.2261 9.2775 0 
270 1 0.44 70.00 9.4806 11.7629 0 
271 1 0.47 70.00 3.7888 12.8741 0 
272 1 0.48 70.00 9.5853 3.8752 0 
273 1 0.49 70.00 4.1630 6.4851 0 
274 1 0.48 70.00 25.6286 14.0414 0 
275 1 0.40 70.00 17.9713 6.3817 0 
276 1 0.46 70.00 10.8611 9.2713 0 
277 1 0.46 70.00 15.5395 6.0745 0 
278 1 0.50 70.00 12.2962 17.0473 0 
279 1 0.45 70.00 12.4678 18.9915 0 
280 1 0.48 70.00 27.6727 19.7889 0 
281 1 0.45 70.00 16.4829 14.3153 0 
282 1 0.47 70.00 5.2917 0.6565 0 
283 1 0.50 70.00 21.1062 12.4148 0 
284 1 0.51 70.00 13.7728 5.0978 0 
285 1 0.52 70.00 8.7373 15.9970 0 
286 1 0.47 70.00 20.7458 8.4561 0 
287 1 0.50 70.00 20.6045 21.6134 0 
288 1 0.48 70.00 11.6551 17.7232 0 
289 1 0.53 70.00 22.4264 11.5387 0 
290 1 0.41 70.00 6.8259 1.5931 0 
291 1 0.44 70.00 12.2950 6.3225 0 
292 1 0.46 70.00 19.2720 8.7410 0 
293 1 0.46 70.00 26.7833 17.5869 0 
294 1 0.48 70.00 12.0129 12.2838 0 
295 1 0.50 70.00 5.0069 2.8902 0 
296 1 0.41 70.00 16.8046 7.0073 0 
297 1 0.52 70.00 12.0510 8.6072 0 
298 1 0.51 70.00 7.2317 14.0434 0 
299 1 0.47 70.00 16.2349 5.2995 0 
300 1 0.43 70.00 4.5678 19.2832 0 
301 1 0.51 70.00 11.4700 6.5046 0 
302 1 0.45 70.00 4.4277 5.7866 0 
303 1 0.51 70.00 22.0748 15.1819 0 
304 1 0.44 70.00 15.3308 1.7133 0 
305 1 0.51 70.00 5.3999 20.3788 0 
306 1 0.42 70.00 2.6052 6.2935 0 
307 1 0.39 70.00 11.0943 11.3843 0 
308 1 0.42 70.00 21.0474 19.9681 0 
309 1 0.47 70.00 8.1996 12.2694 0 
310 1 0.45 70.00 9.7251 4.1115 0 
311 1 0.49 70.00 8.5265 18.3102 0 
312 1 0.43 70.00 25.0083 7.3057 0 
313 1 0.48 70.00 26.2416 1.6610 0 
314 1 0.48 70.00 3.1719 9.9103 0 
315 1 0.46 70.00 6.3463 17.4712 0 
316 1 0.52 70.00 17.2704 18.5271 0 
317 1 0.43 70.00 1.5383 18.7999 0 
318 1 0.53 70.00 12.5801 1.6411 0 
319 1 0.50 70.00 1.1062 20.7611 0 
320 1 0.44 70.00 4.7871 16.0386 0 
321 1 0.38 70.00 12.1962 5.2152 0 
322 1 0.49 70.00 7.9438 3.3643 0 
323 1 0.46 70.00 19.8524 10.0979 0 
324 1 0.47 70.00 1.2098 19.5418 0 
325 1 0.46 70.00 5.8523 2.0699 0 
326 1 0.49 70.00 2.5326 6.7224 0 
327 1 0.55 70.00 25.6021 7.3827 0 
328 1 0.48 70.00 15.0365 11.7659 0 
329 1 0.44 70.00 12.5058 10.5003 0 
330 1 0.45 70.00 17.4880 18.2553 0 
331 1 0.45 70.00 0.7339 15.2962 0 
332 1 0.49 70.00 26.9577 19.0998 0 
333 1 0.41 70.00 16.8858 12.6359 0 
334 1 0.44 70.00 7.1551 19.7855 0 
335 1 0.51 70.00 18.6337 16.6189 0 
336 1 0.48 70.00 15.2029 17.1416 0 
337 1 0.49 70.00 27.3697 19.8101 0 
338 1 0.47 70.00 1.6279 1.8779 0 
339 1 0.48 70.00 2.2196 9.8642 0 
340 1 0.49 70.00 22.1842 15.7233 0 
341 1 0.42 70.00 5.6738 14.5799 0 
342 1 0.44 70.00 5.5674 1.0498 0 
343 1 0.47 70.00 11.3963 21.6349 0 
344 1 0.50 70.00 16.1123 2.6562 0 
345 1 0.47 70.00 27.4687 10.1125 0 
346 1 0.44 70.00 18.7230 21.2709 0 
347 1 0.50 70.00 2.5254 9.5628 0 
348 1 0.46 70.00 24.6949 13.9263 0 
349 1 0.48 70.00 21.1587 20.4700 0 
350 1 0.46 70.00 19.2814 4.3023 0 
351 1 0.47 70.00 14.8334 15.5407 0 
352 1 0.43 70.00 13.5596 19.4368 0 
353 1 0.48 70.00 7.8490 20.6397 0 
354 1 0.50 70.00 21.9938 11.9532 0 
355 1 0.51 70.00 5.7401 20.1281 0 
356 1 0.41 70.00 13.4961 5.3086 0 
357 1 0.51 70.00 17.7605 20.3103 0 
358 1 0.48 70.00 15.8602 3.3176 0 
359 1 0.44 70.00 25.5922 5.9353 0 
360 1 0.52 70.00 21.0568 19.4092 0 
361 1 0.51 70.00 19.5219 21.0651 0 
362 1 0.49 70.00 12.7804 13.0148 0 
363 1 0.50 70.00 4.5428 1.7815 0 
364 1 0.42 70.00 10.4785 1.6035 0 
365 1 0.46 70.00 5.1740 14.1590 0 
366 1 0.45 70.00 25.5527 3.1331 0 
367 1 0.47 70.00 11.1927 17.4102 0 
368 1 0.47 70.00 20.2609 14.2144 0 
369 1 0.48 70.00 6.0861 0.5853 0 
370 1 0.47 70.00 24.8588 4.2204 0 
371 1 0.48 70.00 13.8676 10.1058 0 
372 1 0.47 70.00 1.1430 9.2482 0 
373 1 0.47 70.00 18.0004 5.2824 0 
374 1 0.47 70.00 10.9573 17.1453 0 
375 1 0.48 70.00 15.1401 10.0483 0 
376 1 0.45 70.00 26.4441 7.5231 0 
377 1 0.48 70.00 12.1093 8.3259 0 
378 1 0.44 70.00 8.8853 19.3652 0 
379 1 0.51 70.00 2.9908 16.3726 0 
380 1 0.50 70.00 23.5319 7.4043 0 
381 1 0.48 70.00 6.3739 14.3868 0 
382 1 0.44 70.00 13.2076 17.7758 0 
383 1 0.42 70.00 4.5984 13.2162 0 
384 1 0.45 70.00 15.1832 4.2022 0 
385 1 0.46 70.00 24.5657 8.7500 0 
386 1 0.45 70.00 5.0345 18.5200 0 
387 1 0.48 70.00 4.7972 1.1146 0 
388 1 0.45 70.00 0.5449 21.4351 0 
389 1 0.50 70.00 27.4028 20.6683 0 
390 1 0.48 70.00 11.1216 14.3623 0 
391 1 0.46 70.00 6.7418 14.8413 0 
392 1 0.48 70.00 5.1774 3.4878 0 
393 1 0.46 70.00 18.1523 2.7934 0 
394 1 0.45 70.00 11.1374 2.4853 0 
395 1 0.46 70.00 10.4430 20.8732 0 
396 1 0.49 70.00 14.6063 19.5419 0 
397 1 0.48 70.00 27.0468 3.2723 0 
398 1 0.51 70.00 8.2073 5.5244 0 
399 1 0.46 70.00 16.7862 0.8044 0 
400 1 0.46 70.00 10.3151 6.6648 0 
401 1 0.48 70.00 18.9778 8.6495 0 
402 1 0.51 70.00 14.7174 2.5919 0 
403 1 0.46 70.00 3.2345 14.9490 0 
404 1 0.46 70.00 15.4880 17.6551 0 
405 1 0.47 70.00 8.6373 8.8379 0 
406 1 0.50 70.00 13.9978 8.0657 0 
407 1 0.45 70.00 19.0344 19.2669 0 
408 1 0.40 70.00 14.7762 7.6035 0 
409 1 0.51 70.00 23.4706 4.5143 0 
410 1 0.48 70.00 15.0963 13.2430 0 
411 1 0.46 70.00 22.8694 10.5649 0 
412 1 0.45 70.00 5.4568 9.8878 0 
413 1 0.48 70.00 10.0248 17.2328 0 
414 1 0.47 70.00 16.6200 14.8524 0 
415 1 0.45 70.00 16.0191 2.9928 0 
416 1 0.49 70.00 27.5611 0.6422 0 
417 1 0.53 70.00 25.1372 12.8568 0 
418 1 0.49 70.00 10.2725 11.5114 0 
419 1 0.46 70.00 1.4715 4.6834 0 
420 1 0.47 70.00 2.2092 13.8215 0 
421 1 0.53 70.00 12.3728 21.2677 0 
422 1 0.46 70.00 6.7737 12.3863 0 
423 1 0.47 70.00 20.0106 2.0831 0 
424 1 0.43 70.00 19.7807 3.8222 0 
425 1 0.44 70.00 5.0643 20.4986 0 
426 1 0.47 70.00 2.2639 5.1556 0 
427 1 0.54 70.00 21.6061 10.9126 0 
428 1 0.51 70.00 24.5773 2.8139 0 
429 1 0.46 70.00 3.6495 5.6926 0 
430 1 0.48 70.00 11.0962 8.8019 0 
431 1 0.53 70.00 27.2136 9.0305 0 
432 1 0.43 70.00 26.2789 19.9762 0 
433 1 0.43 70.00 10.7735 16.2784 0 
434 1 0.46 70.00 27.3856 13.6259 0 
435 1 0.43 70.00 3.7240 19.8995 0 
436 1 0.51 70.00 9.4908 8.2615 0 
437 1 0.43 70.00 18.4620 9.5789 0 
438 1 0.47 70.00 26.9632 16.9932 0 
439 1 0.48 70.00 9.8688 11.1785 0 
440 1 0.47 70.00 27.6116 18.4326 0 
441 1 0.46 70.00 18.5120 15.6051 0 
442 1 0.43 70.00 10.2218 12.7506 0 
443 1 0.44 70.00 3.6514 8.7264 0 
444 1 0.49 70.00 5.4343 8.0176 0 
445 1 0.47 70.00 15.6811 15.9910 0 
446 1 0.45 70.00 1.1719 12.2635 0 
447 1 0.47 70.00 9.0913 11.4364 0 
448 1 0.46 70.00 8.2776 2.4183 0 
449 1 0.46 70.00 9.5862 12.2919 0 
450 1 0.46 70.00 18.2075 16.5609 0 
451 1 0.52 70.00 10.8383 10.9756 0 
452 1 0.51 70.00 5.3969 3.0426 0 
453 1 0.39 70.00 27.6387 20.9724 0 
454 1 0.52 70.00 20.3650 8.9794 0 
455 1 0.45 70.00 8.8928 11.6018 0 
456 1 0.47 70.00 2.4401 16.1274 0 
457 1 0.47 70.00 4.9486 20.6704 0 
458 1 0.49 70.00 4.2850 13.8118 0 
459 1 0.52 70.00 23.0553 1.5709 0 
460 1 0.44 70.00 22.4858 2.6645 0 
461 1 0.45 70.00 15.3128 11.2400 0 
462 1 0.48 70.00 1.8036 12.1082 0 
463 1 0.45 70.00 8.2196 12.5564 0 
464 1 0.47 70.00 13.9053 11.9275 0 
465 1 0.46 70.00 25.7626 16.7573 0 
466 1 0.50 70.00 18.8869 6.6523 0 
467 1 0.50 70.00 8.5028 19.3766 0 
468 1 0.48 70.00 24.6526 1.9581 0 
469 1 0.48 70.00 11.9270 8.4358 0 
470 1 0.45 70.00 1.8080 9.5679 0 
471 1 0.47 70.00 10.7001 13.2512 0 
472 1 0.46 70.00 4.7257 18.7913 0 
473 1 0.43 70.00 23.9173 11.7116 0 
474 1 0.45 70.00 26.2761 21.7403 0 
475 1 0.48 70.00 1.3653 10.4784 0 
476 1 0.48 70.00 19.7170 20.7829 0 
477 1 0.46 70.00 18.5292 7.0310 0 
478 1 0.46 70.00 3.1581 6.0892 0 
479 1 0.45 70.00 4.6829 7.2778 0 
480 1 0.45 70.00 12.4041 1.8549 0 
481 1 0.47 70.00 21.5260 7.9271 0 
482 1 0.44 70.00 6.5474 4.8688 0 
483 1 0.48 70.00 16.2605 3.7618 0 
484 1 0.45 70.00 22.3772 13.3776 0 
485 1 0.51 70.00 9.8702 8.4539 0 
486 1 0.48 70.00 19.2703 19.4860 0 
487 1 0.42 70.00 24.2496 13.2057 0 
488 1 0.48 70.00 8.4849 1.8902 0 
489 1 0.49 70.00 20.4896 9.2616 0 
490 1 0.44 70.00 23.5696 19.1540 0 
491 1 0.43 70.00 4.1069 19.8470 0 
492 1 0.46 70.00 17.7847 4.9025 0 
493 1 0.47 70.00 18.7278 5.6976 0 
494 1 0.41 70.00 19.5966 4.2083 0 
495 1 0.47 70.00 22.0117 17.2779 0 
496 1 0.44 70.00 23.3522 9.1531 0 
497 1 0.50 70.00 18.3963 0.5834 0 
498 1 0.42 70.00 13.2724 13.2935 0 
499 1 0.48 70.00 15.3925 20.0695 0 
500 1 0.49 70.00 23.1797 14.0140 0 
501 1 0.46 70.00 22.4508 11.1905 0 
502 1 0.52 70.00 8.0985 14.3288 0 
503 1 0.48 70.00 14.8659 6.8978 0 
504 1 0.48 70.00 7.7271 13.0669 0 
505 1 0.44 70.00 21.9783 16.3447 0 
506 1 0.44 70.00 9.4704 8.6267 0 
507 1 0.49 70.00 2.9312 20.9944 0 
508 1 0.44 70.00 27.2449 9.3198 0 
509 1 0.48 70.00 4.3635 10.8404 0 
510 1 0.46 70.00 22.7893 5.3762 0 
511 1 0.47 70.00 26.4068 21.2524 0 
512 1 0.44 70.00 12.9312 9.9155 0 
513 1 0.45 70.00 3.4651 12.4249 0 
514 1 0.47 70.00 26.9918 9.7364 0 
515 1 0.51 70.00 19.9266 8.9689 0 
516 1 0.49 70.00 6.3638 17.7452 0 
517 1 0.41 70.00 17.6045 20.9393 0 
518 1 0.48 70.00 4.4129 3.8191 0 
519 1 0.47 70.00 16.5637 6.5096 0 
520 1 0.43 70.00 15.0651 5.8918 0 
521 1 0.47 70.00 3.5338 2.2469 0 
522 1 0.45 70.00 22.5379 15.9813 0 
523 1 0.46 70.00 15.7265 4.8500 0 
524 1 0.45 70.00 25.8889 11.9200 0 
525 1 0.42 70.00 17.7222 2.4244 0 
526 1 0.47 70.00 9.1450 8.5372 0 
527 1 0.47 70.00 23.2420 5.3885 0 
528 1 0.51 70.00 24.5331 11.5520 0 
529 1 0.43 70.00 16.5397 8.3943 0 
530 1 0.49 70.00 22.6303 17.8155 0 
531 1 0.44 70.00 19.4398 17.1259 0 
532 1 0.45 70.00 24.1415 16.1384 0 
533 1 0.45 70.00 10.1660 10.6494 0 
534 1 0.48 70.00 4.0222 11.2908 0 
535 1 0.43 70.00 24.8746 11.1463 0 
536 1 0.50 70.00 24.6469 15.5587 0 
537 1 0.39 70.00 21.3914 16.0683 0 
538 1 0.46 70.00 26.9195 12.7295 0 
539 1 0.49 70.00 24.9456 14.5146 0 
540 1 0.49 70.00 2.8907 18.8386 0 
541 1 0.51 70.00 1.4613 19.9168 0 
542 1 0.47 70.00 16.8244 9.0517 0 
543 1 0.48 70.00 12.0073 7.6343 0 
544 1 0.52 70.00 10.4338 7.6518 0 
545 1 0.52 70.00 4.9082 16.2690 0 
546 1 0.43 70.00 8.5469 21.3559 0 
547 1 0.54 70.00 4.0166 0.8143 0 
548 1 0.50 70.00 21.7539 1.6170 0 
549 1 0.43 70.00 21.4137 11.5437 0 
550 1 0.48 70.00 26.2638 17.3397 0 
551 1 0.50 70.00 25.9661 5.7974 0 
552 1 0.46 70.00 21.5100 15.3899 0 
553 1 0.53 70.00 17.8481 19.5852 0 
554 1 0.46 70.00 13.3557 2.6391 0 
555 1 0.50 70.00 10.0280 13.5183 0 
556 1 0.44 70.00 3.4391 9.3269 0 
557 1 0.47 70.00 16.1446 21.4267 0 
558 1 0.49 70.00 1.5474 8.8142 0 
559 1 0.48 70.00 14.0107 16.6994 0 
560 1 0.46 70.00 24.4344 21.4040 0 
561 1 0.47 70.00 5.7501 13.0139 0 
562 1 0.50 70.00 5.0517 13.7459 0 
563 1 0.46 70.00 25.4885 19.0077 0 
564 1 0.48 70.00 2.8427 17.2999 0 
565 1 0.44 70.00 2.1708 7.2207 0 
566 1 0.48 70.00 2.7366 9.2517 0 
567 1 0.48 70.00 21.7124 21.6243 0 
568 1 0.45 70.00 13.0413 2.1170 0 
569 1 0.45 70.00 4.5479 17.8330 0 
570 1 0.48 70.00 26.9242 19.7621 0 
571 1 0.42 70.00 6.5643 9.7213 0 
572 1 0.50 70.00 27.6887 2.3607 0 
573 1 0.49 70.00 19.4572 8.9385 0 
574 1 0.41 70.00 24.8757 3.9670 0 
575 1 0.42 70.00 20.3743 15.1680 0 
576 1 0.47 70.00 12.0973 9.7194 0 
577 1 0.48 70.00 24.0768 16.9539 0 
578 1 0.50 70.00 11.4855 11.8439 0 
579 1 0.53 70.00 2.4024 7.5547 0 
580 1 0.47 70.00 0.7419 0.9691 0 
581 1 0.44 70.00 18.3855 15.9872 0 
582 1 0.46 70.00 27.3064 6.8632 0 
583 1 0.50 70.00 15.0031 12.4296 0 
584 1 0.46 70.00 20.6016 20.4723 0 
585 1 0.48 70.00 20.9387 15.5831 0 
586 1 0.50 70.00 15.3139 4.3791 0 
587 1 0.45 70.00 6.4044 11.9056 0 
588 1 0.50 70.00 25.9354 17.7587 0 
589 1 0.45 70.00 17.8532 18.8673 0 
590 1 0.44 70.00 22.6104 13.4685 0 
591 1 0.52 70.00 15.4998 21.4114 0 
592 1 0.46 70.00 5.7621 16.4843 0 
593 1 0.48 70.00 14.3487 6.0395 0 
594 1 0.44 70.00 3.2589 21.1687 0 
595 1 0.46 70.00 4.8246 12.0842 0 
596 1 0.50 70.00 7.3031 4.2863 0 
597 1 0.45 70.00 17.9411 10.4754 0 
598 1 0.41 70.00 1.8042 6.1720 0 
599 1 0.43 70.00 23.4714 20.1107 0 
600 1 0.44 70.00 8.7714 6.9447 0 
601 1 0.46 70.00 14.9835 15.9989 0 
602 1 0.50 70.00 14.9050 4.5849 0 
603 1 0.48 70.00 7.5284 9.7700 0 
604 1 0.46 70.00 7.2872 8.0474 0 
605 1 0.48 70.00 18.4791 14.9779 0 
606 1 0.46 70.00 2.8730 20.3942 0 
607 1 0.47 70.00 3.1046 8.6665 0 
608 1 0.45 70.00 6.2310 9.2498 0 
609 1 0.46 70.00 15.5406 20.2242 0 
610 1 0.47 70.00 18.3511 13.6445 0 
611 1 0.47 70.00 13.9964 20.4337 0 
612 1 0.44 70.00 4.0130 19.4247 0 
613 1 0.55 70.00 5.7405 19.8695 0 
614 1 0.48 70.00 19.0501 4.8990 0 
615 1 0.49 70.00 6.1486 14.2137 0 
616 1 0.47 70.00 25.8488 20.2838 0 
617 1 0.49 70.00 5.1959 19.3826 0 
618 1 0.45 70.00 17.4903 3.8197 0 
619 1 0.44 70.00 6.7100 7.3735 0 
620 1 0.47 70.00 8.7793 13.3779 0 
621 1 0.49 70.00 24.0822 5.0176 0 
622 1 0.43 70.00 5.3858 3.7925 0 
623 1 0.49 70.00 15.5594 19.6862 0 
624 1 0.49 70.00 14.7372 12.4565 0 
625 1 0.51 70.00 5.7127 20.6132 0 
626 1 0.40 70.00 25.8921 10.0098 0 
627 1 0.41 70.00 17.0722 18.5753 0 
628 1 0.48 70.00 5.3098 2.4042 0 
629 1 0.47 70.00 7.3246 9.0830 0 
630 1 0.48 70.00 4.7871 19.7471 0 
631 1 0.46 70.00 21.3905 14.8170 0 
632 1 0.53 70.00 13.5219 12.8915 0 
633 1 0.48 70.00 7.4560 16.7243 0 
634 1 0.47 70.00 1.9064 5.2276 0 
635 1 0.47 70.00 1.7142 5.0041 0 
636 1 0.45 70.00 15.7692 0.7487 0 
637 1 0.47 70.00 7.0681 9.5284 0 
638 1 0.43 70.00 27.7263 3.8436 0 
639 1 0.44 70.00 1.1267 10.9510 0 
640 1 0.47 70.00 22.5473 2.4253 0 
641 1 0.46 70.00 6.7748 17.9308 0 
642 1 0.49 70.00 13.7303 10.9061 0 
643 1 0.46 70.00 22.3041 10.3002 0 
644 1 0.49 70.00 5.1637 4.5565 0 
645 1 0.47 70.00 15.8476 16.8796 0 
646 1 0.48 70.00 14.9175 11.9681 0 
647 1 0.50 70.00 20.8650 18.8574 0 
648 1 0.47 70.00 17.6755 1.3527 0 
649 1 0.51 70.00 20.5903 11.7556 0 
650 1 0.44 70.00 12.2742 6.0333 0 
651 1 0.46 70.00 12.9157 17.5281 0 
652 1 0.55 70.00 6.2011 11.1157 0 
653 1 0.47 70.00 2.5466 21.7522 0 
654 1 0.42 70.00 18.9890 2.4215 0 
655 1 0.49 70.00 8.9909 10.2110 0 
656 1 0.43 70.00 17.1461 12.6234 0 
657 1 0.46 70.00 5.3155 10.5888 0 
658 1 0.45 70.00 5.6832 5.1239 0 
659 1 0.42 70.00 3.6354 10.1036 0 
660 1 0.43 70.00 5.3656 9.7040 0 
661 1 0.42 70.00 6.6046 1.9580 0 
662 1 0.49 70.00 20.7749 20.9581 0 
663 1 0.47 70.00 9.5499 21.0807 0 
664 1 0.44 70.00 5.2214 19.6767 0 
665 1 0.48 70.00 2.9341 2.9401 0 
666 1 0.44 70.00 19.6010 21.6897 0 
667 1 0.44 70.00 1.1752 13.9313 0 
668 1 0.49 70.00 8.5471 15.3721 0 
669 1 0.46 70.00 13.7117 13.8058 0 
670 1 0.52 70.00 20.6828 8.9553 0 
671 1 0.49 70.00 13.2501 20.0356 0 
672 1 0.47 70.00 15.3878 20.7120 0 
673 1 0.46 70.00 27.0990 11.3173 0 
674 1 0.48 70.00 0.6747 4.4134 0 
675 1 0.46 70.00 15.5609 5.5292 0 
676 1 0.46 70.00 15.3019 21.3119 0 
677 1 0.47 70.00 9.8997 10.3406 0 
678 1 0.49 70.00 20.9948 1.0907 0 
679 1 0.49 70.00 2.4581 20.8628 0 
680 1 0.50 70.00 22.4324 3.0495 0 
681 1 0.47 70.00 10.7753 16.7297 0 
682 1 0.44 70.00 23.6426 2.6254 0 
683 1 0.48 70.00 8.1139 15.6080 0 
684 1 0.48 70.00 18.2677 4.9943 0 
685 1 0.50 70.00 8.7351 6.6125 0 
686 1 0.44 70.00 7.2568 10.1906 0 
687 1 0.49 70.00 8.6630 2.0835 0 
688 1 0.49 70.00 22.6179 19.4759 0 
689 1 0.47 70.00 10.2143 17.0523 0 
690 1 0.42 70.00 11.5425 1.7363 0 
691 1 0.48 70.00 4.1494 2.0141 0 
692 1 0.44 70.00 8.9545 9.2512 0 
693 1 0.48 70.00 18.9098 3.3305 0 
694 1 0.45 70.00 6.0625 13.1109 0 
695 1 0.49 70.00 16.2080 13.5200 0 
696 1 0.43 70.00 7.0839 6.0543 0 
697 1 0.47 70.00 4.7073 1.6012 0 
698 1 0.43 70.00 25.8045 2.7532 0 
699 1 0.49 70.00 8.9354 20.4466 0 
700 1 0.46 70.00 23.5652 0.5799 0 
701 1 0.51 70.00 4.0117 1.3124 0 
702 1 0.47 70.00 14.1462 10.6663 0 
703 1 0.47 70.00 22.4419 14.7610 0 
704 1 0.45 70.00 16.5189 3.3740 0 
705 1 0.48 70.00 9.4170 21.4562 0 
706 1 0.47 70.00 23.8570 4.5971 0 
707 1 0.48 70.00 2.2914 21.6679 0 
708 1 0.44 70.00 25.1166 15.2385 0 
709 1 0.52 70.00 19.6016 5.8393 0 
710 1 0.41 70.00 14.4333 2.6848 0 
711 1 0.43 70.00 11.6732 21.6818 0 
712 1 0.48 70.00 1.6169 8.4672 0 
713 1 0.48 70.00 17.1768 1.0323 0 
714 1 0.47 70.00 10.2139 10.3612 0 
715 1 0.46 70.00 20.0625 2.5314 0 
716 1 0.43 70.00 8.0245 17.1154 0 
717 1 0.51 70.00 16.7156 9.9889 0 
718 1 0.47 70.00 5.2294 7.1813 0 
719 1 0.49 70.00 1.6947 3.0155 0 
720 1 0.48 70.00 7.7066 2.4208 0 
721 1 0.46 70.00 27.0166 5.6040 0 
722 1 0.47 70.00 8.4238 3.7464 0 
723 1 0.49 70.00 1.4371 19.5300 0 
724 1 0.46 70.00 1.8528 15.7276 0 
725 1 0.48 70.00 21.6285 2.1362 0 
726 1 0.45 70.00 9.1231 17.1054 0 
727 1 0.48 70.00 25.6926 4.6995 0 
728 1 0.45 70.00 4.3809 16.0800 0 
729 1 0.47 70.00 25.2587 7.2429 0 
730 1 0.45 70.00 4.4744 16.7731 0 
731 1 0.51 70.00 13.7663 21.5995 0 
732 1 0.50 70.00 8.6793 14.2552 0 
733 1 0.45 70.00 17.3951 20.7711 0 
734 1 0.45 70.00 26.8953 4.9836 0 
735 1 0.52 70.00 21.4655 19.1537 0 
736 1 0.47 70.00 22.3196 12.0701 0 
737 1 0.55 70.00 1.6821 14.0071 0 
738 1 0.45 70.00 4.4195 3.3680 0 
739 1 0.44 70.00 25.7057 10.8150 0 
740 1 0.49 70.00 16.8667 1.4775 0 
741 1 0.49 70.00 9.2105 15.7284 0 
742 1 0.46 70.00 16.4183 7.2149 0 
743 1 0.46 70.00 27.4630 17.8041 0 
744 1 0.49 70.00 2.3646 8.6748 0 
745 1 0.45 70.00 12.1895 16.4728 0 
746 1 0.49 70.00 16.0025 18.8174 0 
747 1 0.53 70.00 24.1251 18.9257 0 
748 1 0.54 70.00 16.0525 5.7936 0 
749 1 0.47 70.00 7.1586 5.2355 0 
750 1 0.47 70.00 8.1542 6.4479 0 
751 1 0.47 70.00 0.8012 17.0762 0 
752 1 0.46 70.00 17.2688 13.5589 0 
753 1 0.46 70.00 14.9864 1.8022 0 
754 1 0.48 70.00 4.5145 19.9792 0 
755 1 0.51 70.00 1.6983 4.4236 0 
756 1 0.46 70.00 19.3446 2.8232 0 
757 1 0.48 70.00 9.5131 9.1778 0 
758 1 0.51 70.00 7.3500 17.8703 0 
759 1 0.44 70.00 16.2547 14.4240 0 
760 1 0.44 70.00 0.7441 14.0165 0 
761 1 0.49 70.00 14.3975 19.8069 0 
762 1 0.46 70.00 9.1885 3.7029 0 
763 1 0.46 70.00 18.0891 17.6371 0 
764 1 0.47 70.00 19.0552 16.5902 0 
765 1 0.48 70.00 4.7650 9.4665 0 
766 1 0.49 70.00 23.1086 21.6712 0 
767 1 0.47 70.00 15.2703 15.4677 0 
768 1 0.43 70.00 9.0678 19.1998 0 
769 1 0.44 70.00 25.9322 17.2244 0 
770 1 0.50 70.00 21.8490 13.8263 0 
771 1 0.47 70.00 4.6513 5.5908 0 
772 1 0.52 70.00 3.4326 15.7054 0 
773 1 0.49 70.00 27.0195 9.0947 0 
774 1 0.44 70.00 16.3251 20.0373 0 
775 1 0.44 70.00 26.6476 0.6988 0 
776 1 0.47 70.00 1.5175 14.2564 0 
777 1 0.48 70.00 8.2993 15.0963 0 
778 1 0.47 70.00 16.3730 12.2827 0 
779 1 0.43 70.00 5.9075 7.9044 0 
780 1 0.44 70.00 15.2685 8.5395 0 
781 1 0.51 70.00 6.4097 6.3363 0 
782 1 0.52 70.00 21.0858 17.5222 0 
783 1 0.47 70.00 22.1061 3.0869 0 
784 1 0.48 70.00 14.9041 5.0732 0 
785 1 0.49 70.00 13.9132 21.4599 0 
786 1 0.48 70.00 4.7929 4.7168 0 
787 1 0.47 70.00 2.2980 3.1044 0 
788 1 0.45 70.00 14.3375 6.6505 0 
789 1 0.45 70.00 4.4148 11.2031 0 
790 1 0.40 70.00 7.2478 14.3016 0 
791 1 0.42 70.00 9.7377 1.7542 0 
792 1 0.50 70.00 27.2722 14.5300 0 
793 1 0.48 70.00 25.5256 19.2229 0 
794 1 0.46 70.00 22.8230 7.4639 0 
795 1 0.52 70.00 8.1711 19.5067 0 
796 1 0.53 70.00 18.0967 13.4093 0 
797 1 0.45 70.00 5.5823 18.9610 0 
798 1 0.50 70.00 13.7459 3.2559 0 
799 1 0.45 70.00 1.4888 5.4295 0 
800 1 0.42 70.00 4.4663 17.3861 0 
801 1 0.42 70.00 22.6113 9.5621 0 
802 1 0.51 70.00 19.5156 13.1163 0 
803 1 0.48 70.00 16.7279 3.2297 0 
804 1 0.51 70.00 9.6265 12.9469 0 
805 1 0.42 70.00 9.7480 20.0495 0 
806 1 0.43 70.00 25.8446 6.9994 0 
807 1 0.54 70.00 7.7469 1.9484 0 
808 1 0.43 70.00 0.7217 9.2223 0 
809 1 0.44 70.00 27.5783 11.4457 0 
810 1 0.42 70.00 0.8269 1.9111 0 
811 1 0.46 70.00 7.4229 10.4048 0 
812 1 0.44 70.00 14.7431 12.1159 0 
813 1 0.50 70.00 25.9936 15.0323 0 
814 1 0.47 70.00 10.0431 7.6055 0 
815 1 0.47 70.00 9.5953 9.7020 0 
816 1 0.50 70.00 3.1884 13.7100 0 
817 1 0.47 70.00 17.7061 7.0856 0 
818 1 0.45 70.00 11.0149 9.0271 0 
819 1 0.47 70.00 24.9463 19.7473 0 
820 1 0.53 70.00 22.9859 0.8948 0 
821 1 0.46 70.00 12.6884 11.9778 0 
822 1 0.45 70.00 24.3906 15.9622 0 
823 1 0.42 70.00 8.1170 21.6554 0 
824 1 0.51 70.00 9.1225 21.7675 0 
825 1 0.47 70.00 24.2514 5.5182 0 
826 1 0.49 70.00 18.8521 13.7210 0 
827 1 0.44 70.00 16.2182 2.1670 0 
828 1 0.46 70.00 7.0107 2.1751 0 
829 1 0.50 70.00 20.8415 6.3406 0 
830 1 0.50 70.00 14.2856 3.5852 0 
831 1 0.43 70.00 19.2046 14.5963 0 
832 1 0.47 70.00 24.8489 13.0114 0 
833 1 0.45 70.00 11.6697 7.0427 0 
834 1 0.44 70.00 27.5403 5.6417 0 
835 1 0.42 70.00 19.6100 17.6589 0 
836 1 0.49 70.00 13.8633 14.9753 0 
837 1 0.45 70.00 1.3804 3.4615 0 
838 1 0.45 70.00 25.6144 19.9788 0 
839 1 0.49 70.00 12.7646 4.9698 0 
840 1 0.48 70.00 7.8829 4.1906 0 
841 1 0.48 70.00 16.2010 13.3192 0 
842 1 0.43 70.00 21.9271 12.7317 0 
843 1 0.46 70.00 23.0801 19.2594 0 
844 1 0.45 70.00 23.6765 1.2685 0 
845 1 0.45 70.00 10.0026 9.5167 0 
846 1 0.50 70.00 5.1964 3.0980 0 
847 1 0.49 70.00 3.0904 10.9759 0 
848 1 0.47 70.00 11.8969 3.6718 0 
849 1 0.44 70.00 12.6268 12.8660 0 
850 1 0.46 70.00 7.6006 5.5412 0 
851 1 0.46 70.00 17.4758 16.0392 0 
852 1 0.52 70.00 13.6828 5.8324 0 