# LAMMPS data file for rigid bodies

616 atoms

2 atom types

0.0 	 28.0 	 xlo xhi 
0.0 	 22.0 	 ylo yhi 
-1.0 	 1.0 	 zlo zhi 

Atoms

1 1 0.47 70.00 8.1512 7.3766 0 
2 1 0.49 70.00 13.1189 15.7187 0 
3 1 0.46 70.00 11.9177 8.9092 0 
4 1 0.45 70.00 9.5134 17.1832 0 
5 1 0.49 70.00 10.0915 2.5641 0 
6 1 0.51 70.00 15.5296 13.1389 0 
7 1 0.45 70.00 21.3639 2.9571 0 
8 1 0.51 70.00 5.4580 11.7736 0 
9 1 0.46 70.00 23.2651 16.9267 0 
10 1 0.48 70.00 2.9635 20.1169 0 
11 1 0.46 70.00 18.7785 18.3199 0 
12 1 0.43 70.00 23.5598 15.5582 0 
13 1 0.49 70.00 26.5826 18.0276 0 
14 1 0.52 70.00 19.0021 7.2760 0 
15 1 0.45 70.00 2.1099 7.4074 0 
16 1 0.52 70.00 17.0724 20.4229 0 
17 1 0.39 70.00 19.2916 19.4318 0 
18 1 0.47 70.00 22.8281 7.8450 0 
19 1 0.50 70.00 15.4174 15.4559 0 
20 1 0.45 70.00 7.3994 12.4591 0 
21 1 0.46 70.00 10.5599 2.0017 0 
22 1 0.42 70.00 3.6265 5.2195 0 
23 1 0.50 70.00 8.0619 4.5979 0 
24 1 0.48 70.00 11.7937 3.9605 0 
25 1 0.48 70.00 3.7262 18.6499 0 
26 1 0.48 70.00 24.9262 11.4681 0 
27 1 0.44 70.00 5.5666 16.7421 0 
28 1 0.43 70.00 8.8669 15.6391 0 
29 1 0.51 70.00 6.2868 14.8902 0 
30 1 0.47 70.00 21.6794 13.4935 0 
31 1 0.48 70.00 5.2827 7.0139 0 
32 1 0.53 70.00 23.5894 21.4068 0 
33 1 0.43 70.00 10.9475 3.4774 0 
34 1 0.46 70.00 19.6415 18.2730 0 
35 1 0.42 70.00 24.9103 12.4156 0 
36 1 0.50 70.00 7.8209 0.5288 0 
37 1 0.49 70.00 7.1855 21.4861 0 
38 1 0.49 70.00 20.9385 7.9644 0 
39 1 0.49 70.00 23.6126 3.5155 0 
40 1 0.44 70.00 15.2813 15.6469 0 
41 1 0.52 70.00 24.9499 2.2291 0 
42 1 0.49 70.00 5.9568 6.0010 0 
43 1 0.44 70.00 12.7272 14.0106 0 
44 1 0.44 70.00 5.2058 4.8123 0 
45 1 0.46 70.00 16.7537 18.7939 0 
46 1 0.48 70.00 14.2880 20.7839 0 
47 1 0.51 70.00 9.8355 19.2503 0 
48 1 0.47 70.00 20.1110 13.0595 0 
49 1 0.42 70.00 2.5476 21.0219 0 
50 1 0.39 70.00 15.5849 9.3874 0 
51 1 0.46 70.00 7.0985 15.0434 0 
52 1 0.44 70.00 19.8333 10.6250 0 
53 1 0.47 70.00 12.6687 1.6372 0 
54 1 0.44 70.00 1.1859 18.2762 0 
55 1 0.53 70.00 17.4796 14.0450 0 
56 1 0.43 70.00 15.9921 9.9324 0 
57 1 0.46 70.00 12.7283 2.3526 0 
58 1 0.45 70.00 16.9076 10.8601 0 
59 1 0.52 70.00 20.9186 13.7008 0 
60 1 0.50 70.00 6.6173 10.1431 0 
61 1 0.47 70.00 26.4653 14.0594 0 
62 1 0.48 70.00 1.4371 10.5809 0 
63 1 0.51 70.00 24.8315 17.5681 0 
64 1 0.50 70.00 1.8240 1.2968 0 
65 1 0.49 70.00 8.2858 6.1380 0 
66 1 0.48 70.00 15.6486 11.3499 0 
67 1 0.40 70.00 15.3580 11.6401 0 
68 1 0.46 70.00 13.1134 6.9343 0 
69 1 0.44 70.00 16.1470 1.9829 0 
70 1 0.44 70.00 8.3156 19.3216 0 
71 1 0.44 70.00 8.3921 13.0723 0 
72 1 0.43 70.00 9.3719 5.3929 0 
73 1 0.42 70.00 24.0434 17.0394 0 
74 1 0.43 70.00 9.7899 15.7871 0 
75 1 0.49 70.00 15.1853 4.3669 0 
76 1 0.45 70.00 21.6525 5.1209 0 
77 1 0.47 70.00 12.5501 16.2330 0 
78 1 0.51 70.00 9.4479 0.5313 0 
79 1 0.44 70.00 8.7542 4.3794 0 
80 1 0.52 70.00 20.0122 11.4504 0 
81 1 0.45 70.00 2.2220 4.6386 0 
82 1 0.45 70.00 4.5165 3.4990 0 
83 1 0.44 70.00 22.1654 12.0800 0 
84 1 0.51 70.00 7.2526 6.4467 0 
85 1 0.48 70.00 11.6637 20.7817 0 
86 1 0.47 70.00 4.1799 19.0685 0 
87 1 0.46 70.00 20.3309 3.0173 0 
88 1 0.49 70.00 16.8065 1.4984 0 
89 1 0.47 70.00 21.2920 10.6837 0 
90 1 0.44 70.00 5.5148 8.7773 0 
91 1 0.52 70.00 16.3401 14.0029 0 
92 1 0.47 70.00 13.3531 15.2783 0 
93 1 0.49 70.00 17.9729 11.9930 0 
94 1 0.48 70.00 12.2404 4.5471 0 
95 1 0.53 70.00 6.3844 12.3710 0 
96 1 0.48 70.00 11.3824 6.5952 0 
97 1 0.47 70.00 4.3285 17.1801 0 
98 1 0.42 70.00 23.2714 7.5156 0 
99 1 0.45 70.00 2.6025 18.5505 0 
100 1 0.49 70.00 14.2784 16.8308 0 
101 1 0.46 70.00 15.2430 2.0395 0 
102 1 0.51 70.00 26.7919 2.0604 0 
103 1 0.48 70.00 24.5069 16.0625 0 
104 1 0.48 70.00 4.5591 10.7661 0 
105 1 0.47 70.00 10.7451 13.7173 0 
106 1 0.46 70.00 20.9124 1.9401 0 
107 1 0.40 70.00 26.5613 16.6382 0 
108 1 0.47 70.00 14.0926 7.5834 0 
109 1 0.43 70.00 4.4092 2.3871 0 
110 1 0.46 70.00 19.8377 16.1768 0 
111 1 0.47 70.00 22.3081 8.1832 0 
112 1 0.43 70.00 7.0815 17.0569 0 
113 1 0.46 70.00 14.7986 17.0775 0 
114 1 0.44 70.00 19.0762 15.1883 0 
115 1 0.45 70.00 6.6363 15.3992 0 
116 1 0.48 70.00 26.0018 7.2489 0 
117 1 0.49 70.00 18.8763 5.8314 0 
118 1 0.45 70.00 19.8752 14.9450 0 
119 1 0.45 70.00 24.0484 21.1668 0 
120 1 0.47 70.00 21.6373 2.1918 0 
121 1 0.48 70.00 15.1157 16.8840 0 
122 1 0.49 70.00 13.8529 1.4620 0 
123 1 0.50 70.00 6.7401 3.8042 0 
124 1 0.46 70.00 1.3262 7.2468 0 
125 1 0.48 70.00 25.3769 10.6212 0 
126 1 0.43 70.00 2.9910 21.0780 0 
127 1 0.45 70.00 26.0848 21.7915 0 
128 1 0.41 70.00 25.0205 16.7145 0 
129 1 0.47 70.00 17.1173 1.0957 0 
130 1 0.47 70.00 22.3142 16.4574 0 
131 1 0.48 70.00 15.9694 14.2252 0 
132 1 0.48 70.00 1.3506 10.2996 0 
133 1 0.45 70.00 14.3803 6.6142 0 
134 1 0.51 70.00 13.4795 6.5463 0 
135 1 0.41 70.00 18.4965 19.9183 0 
136 1 0.41 70.00 24.1760 0.7799 0 
137 1 0.51 70.00 1.8633 16.1974 0 
138 1 0.48 70.00 23.5994 3.7900 0 
139 1 0.51 70.00 10.4713 11.3093 0 
140 1 0.46 70.00 11.2100 11.7206 0 
141 1 0.51 70.00 21.8558 2.9581 0 
142 1 0.49 70.00 8.4762 13.7951 0 
143 1 0.44 70.00 14.5676 0.6513 0 
144 1 0.48 70.00 22.4159 8.8830 0 
145 1 0.44 70.00 0.8113 19.5950 0 
146 1 0.46 70.00 27.0273 0.7620 0 
147 1 0.49 70.00 1.6921 1.8547 0 
148 1 0.41 70.00 26.8681 1.3525 0 
149 1 0.47 70.00 8.3226 5.5934 0 
150 1 0.47 70.00 14.9562 12.9736 0 
151 1 0.48 70.00 22.0582 21.1000 0 
152 1 0.46 70.00 18.9179 10.9371 0 
153 1 0.48 70.00 13.5383 10.9965 0 
154 1 0.46 70.00 24.6693 19.1301 0 
155 1 0.44 70.00 12.8683 13.3682 0 
156 1 0.48 70.00 16.8781 17.1708 0 
157 1 0.55 70.00 15.7516 21.5950 0 
158 1 0.48 70.00 18.3475 20.4852 0 
159 1 0.42 70.00 25.1650 2.8531 0 
160 1 0.49 70.00 10.3021 9.8177 0 
161 1 0.48 70.00 7.4353 16.0269 0 
162 1 0.46 70.00 6.3544 4.9652 0 
163 1 0.48 70.00 6.4694 1.5371 0 
164 1 0.45 70.00 16.4164 6.7434 0 
165 1 0.49 70.00 8.7821 4.9106 0 
166 1 0.46 70.00 10.6118 0.6638 0 
167 1 0.46 70.00 12.0774 19.2166 0 
168 1 0.41 70.00 17.1543 4.8146 0 
169 1 0.46 70.00 12.0103 6.8426 0 
170 1 0.46 70.00 6.6106 21.4215 0 
171 1 0.44 70.00 18.6530 16.7970 0 
172 1 0.50 70.00 12.9808 0.6732 0 
173 1 0.38 70.00 15.8232 5.1573 0 
174 1 0.49 70.00 8.3043 10.0801 0 
175 1 0.46 70.00 9.6176 3.1000 0 
176 1 0.47 70.00 9.9576 12.9941 0 
177 1 0.42 70.00 23.3265 6.9103 0 
178 1 0.48 70.00 27.2849 2.5379 0 
179 1 0.47 70.00 14.9885 16.2720 0 
180 1 0.47 70.00 1.0448 4.1656 0 
181 1 0.49 70.00 24.6477 3.1438 0 
182 1 0.43 70.00 16.2781 4.2411 0 
183 1 0.49 70.00 7.5738 9.3562 0 
184 1 0.43 70.00 5.5240 15.6950 0 
185 1 0.44 70.00 23.5316 5.8798 0 
186 1 0.44 70.00 8.1880 20.3697 0 
187 1 0.51 70.00 21.4198 1.4501 0 
188 1 0.47 70.00 17.7602 19.3995 0 
189 1 0.48 70.00 8.7575 9.3595 0 
190 1 0.50 70.00 6.1528 14.7192 0 
191 1 0.50 70.00 18.2521 13.8892 0 
192 1 0.46 70.00 4.6635 5.6269 0 
193 1 0.50 70.00 25.0972 15.1625 0 
194 1 0.44 70.00 13.1658 2.0617 0 
195 1 0.47 70.00 10.1296 4.9195 0 
196 1 0.48 70.00 5.6596 1.6930 0 
197 1 0.43 70.00 23.8877 13.5437 0 
198 1 0.50 70.00 16.2017 4.7698 0 
199 1 0.48 70.00 15.6969 13.2942 0 
200 1 0.44 70.00 24.1791 16.1107 0 
201 1 0.46 70.00 20.2642 11.9382 0 
202 1 0.48 70.00 13.7853 20.2935 0 
203 1 0.47 70.00 8.3195 12.0409 0 
204 1 0.48 70.00 4.2957 16.0126 0 
205 1 0.50 70.00 11.7934 21.5222 0 
206 1 0.44 70.00 2.7107 14.3117 0 
207 1 0.49 70.00 27.0562 13.0281 0 
208 1 0.47 70.00 8.9946 10.1159 0 
209 1 0.43 70.00 2.2038 11.1247 0 
210 1 0.49 70.00 3.4190 20.5388 0 
211 1 0.44 70.00 3.3934 17.0093 0 
212 1 0.50 70.00 17.4398 13.8441 0 
213 1 0.51 70.00 16.4355 5.3650 0 
214 1 0.47 70.00 21.3756 11.9095 0 
215 1 0.42 70.00 5.4985 18.3944 0 
216 1 0.43 70.00 7.9327 9.2451 0 
217 1 0.46 70.00 20.9924 20.3660 0 
218 1 0.42 70.00 4.0685 18.1280 0 
219 1 0.46 70.00 22.6855 13.0147 0 
220 1 0.50 70.00 15.0256 15.8073 0 
221 1 0.53 70.00 11.9129 11.1934 0 
222 1 0.46 70.00 3.4161 12.1233 0 
223 1 0.49 70.00 27.7058 20.1190 0 
224 1 0.51 70.00 16.0952 1.2509 0 
225 1 0.45 70.00 15.9434 8.6750 0 
226 1 0.53 70.00 6.0889 21.4888 0 
227 1 0.45 70.00 16.6705 19.4698 0 
228 1 0.48 70.00 26.9631 3.7361 0 
229 1 0.50 70.00 16.9360 19.3048 0 
230 1 0.45 70.00 22.7998 1.7343 0 
231 1 0.44 70.00 3.8909 19.1838 0 
232 1 0.52 70.00 4.1256 19.9532 0 
233 1 0.46 70.00 0.7577 6.1554 0 
234 1 0.47 70.00 22.5302 2.9995 0 
235 1 0.41 70.00 17.9608 4.8812 0 
236 1 0.47 70.00 25.6548 13.8332 0 
237 1 0.49 70.00 26.8693 17.3313 0 
238 1 0.44 70.00 5.3690 7.6163 0 
239 1 0.48 70.00 20.2782 9.4597 0 
240 1 0.47 70.00 8.2601 18.7918 0 
241 1 0.50 70.00 26.9436 7.5827 0 
242 1 0.50 70.00 21.4401 10.0134 0 
243 1 0.46 70.00 24.8442 18.0173 0 
244 1 0.47 70.00 10.1801 7.3727 0 
245 1 0.50 70.00 19.5334 12.9151 0 
246 1 0.49 70.00 23.6179 17.4834 0 
247 1 0.45 70.00 4.8003 3.7721 0 
248 1 0.48 70.00 18.2332 13.0018 0 
249 1 0.48 70.00 23.2936 10.3860 0 
250 1 0.50 70.00 2.1502 9.4599 0 
251 1 0.44 70.00 17.7658 12.2200 0 
252 1 0.42 70.00 26.8639 19.9693 0 
253 1 0.44 70.00 22.1434 12.2836 0 
254 1 0.46 70.00 6.8425 14.1562 0 
255 1 0.44 70.00 0.7674 11.8349 0 
256 1 0.45 70.00 5.0267 4.6962 0 
257 1 0.45 70.00 23.0635 14.3236 0 
258 1 0.43 70.00 12.4676 3.8211 0 
259 1 0.50 70.00 11.6457 7.6284 0 
260 1 0.49 70.00 8.5391 21.5522 0 
261 1 0.53 70.00 8.6868 10.9195 0 
262 1 0.45 70.00 19.1623 17.0072 0 
263 1 0.41 70.00 13.0018 7.8825 0 
264 1 0.46 70.00 8.5968 15.8375 0 
265 1 0.47 70.00 6.6102 7.0467 0 
266 1 0.52 70.00 6.0242 19.4253 0 
267 1 0.47 70.00 6.2690 4.6151 0 
268 1 0.44 70.00 17.8508 7.0226 0 
269 1 0.48 70.00 14.7172 15.9760 0 
270 1 0.45 70.00 6.0648 10.8159 0 
271 1 0.50 70.00 20.4213 3.2127 0 
272 1 0.46 70.00 14.9986 6.2348 0 
273 1 0.44 70.00 16.0571 1.6470 0 
274 1 0.45 70.00 1.4058 13.4622 0 
275 1 0.50 70.00 1.2525 5.8297 0 
276 1 0.48 70.00 19.8580 19.6863 0 
277 1 0.45 70.00 17.1826 19.9723 0 
278 1 0.49 70.00 19.5906 14.2120 0 
279 1 0.41 70.00 6.8233 13.4933 0 
280 1 0.42 70.00 26.2540 17.6208 0 
281 1 0.44 70.00 17.0385 11.4869 0 
282 1 0.49 70.00 13.1587 8.1802 0 
283 1 0.56 70.00 18.5776 20.4735 0 
284 1 0.47 70.00 14.2690 1.3499 0 
285 1 0.51 70.00 23.0910 12.6409 0 
286 1 0.49 70.00 12.1014 8.1768 0 
287 1 0.43 70.00 10.7626 13.0120 0 
288 1 0.47 70.00 16.7378 3.8789 0 
289 1 0.47 70.00 20.6383 1.3561 0 
290 1 0.47 70.00 4.8937 2.1039 0 
291 1 0.47 70.00 25.8878 8.4943 0 
292 1 0.49 70.00 21.1997 19.0639 0 
293 1 0.48 70.00 8.1574 4.1454 0 
294 1 0.45 70.00 20.1562 18.0320 0 
295 1 0.50 70.00 21.8466 11.2118 0 
296 1 0.46 70.00 15.7850 6.4895 0 
297 1 0.45 70.00 24.4782 6.9869 0 
298 1 0.45 70.00 4.0877 1.1179 0 
299 1 0.43 70.00 19.1522 7.4501 0 
300 1 0.42 70.00 6.8393 4.4699 0 
301 1 0.44 70.00 8.5760 8.5682 0 
302 1 0.44 70.00 3.4032 0.6760 0 
303 1 0.43 70.00 5.0385 19.6859 0 
304 1 0.48 70.00 5.0064 8.8459 0 
305 1 0.47 70.00 7.9031 11.5996 0 
306 1 0.48 70.00 15.2061 3.8528 0 
307 1 0.43 70.00 7.8938 8.9350 0 
308 1 0.49 70.00 2.3223 10.5997 0 
309 1 0.46 70.00 14.5930 11.7437 0 
310 1 0.49 70.00 24.6762 6.3965 0 
311 1 0.47 70.00 17.1707 8.9583 0 
312 1 0.45 70.00 27.2748 19.8971 0 
313 1 0.44 70.00 8.4425 3.6722 0 
314 1 0.47 70.00 15.2768 4.6446 0 
315 1 0.46 70.00 7.3050 18.2608 0 
316 1 0.48 70.00 13.9737 6.8809 0 
317 1 0.44 70.00 26.6840 15.0611 0 
318 1 0.46 70.00 13.2800 14.4958 0 
319 1 0.47 70.00 12.3931 16.5339 0 
320 1 0.49 70.00 24.4816 5.3958 0 
321 1 0.50 70.00 5.3126 9.4124 0 
322 1 0.44 70.00 21.8874 14.3380 0 
323 1 0.50 70.00 4.7597 13.0439 0 
324 1 0.45 70.00 7.1772 14.2034 0 
325 1 0.46 70.00 27.7254 17.8745 0 
326 1 0.48 70.00 17.9670 11.4364 0 
327 1 0.43 70.00 19.1149 15.6148 0 
328 1 0.44 70.00 7.0629 21.2878 0 
329 1 0.45 70.00 22.6533 10.5883 0 
330 1 0.45 70.00 18.2244 18.5778 0 
331 1 0.41 70.00 26.5668 19.7830 0 
332 1 0.46 70.00 9.4830 9.9956 0 
333 1 0.48 70.00 25.1075 20.4805 0 
334 1 0.52 70.00 17.1648 10.3767 0 
335 1 0.51 70.00 11.3402 21.7465 0 
336 1 0.49 70.00 21.2739 4.9921 0 
337 1 0.51 70.00 26.5998 7.5266 0 
338 1 0.49 70.00 7.0376 6.6018 0 
339 1 0.46 70.00 17.7525 8.4758 0 
340 1 0.44 70.00 21.8867 1.5420 0 
341 1 0.48 70.00 3.2803 6.1778 0 
342 1 0.45 70.00 1.3745 14.1522 0 
343 1 0.48 70.00 11.6514 15.3251 0 
344 1 0.43 70.00 4.5567 13.1422 0 
345 1 0.46 70.00 27.0382 17.0432 0 
346 1 0.47 70.00 22.5127 8.1682 0 
347 1 0.46 70.00 6.4524 13.0659 0 
348 1 0.45 70.00 12.0107 15.3832 0 
349 1 0.47 70.00 2.8997 1.1079 0 
350 1 0.49 70.00 27.6857 6.4730 0 
351 1 0.48 70.00 15.6819 3.9041 0 
352 1 0.42 70.00 25.0731 1.2198 0 
353 1 0.48 70.00 24.1912 10.1570 0 
354 1 0.44 70.00 10.3595 8.4810 0 
355 1 0.42 70.00 23.5930 20.5603 0 
356 1 0.50 70.00 22.8359 19.8709 0 
357 1 0.48 70.00 3.6333 20.6473 0 
358 1 0.43 70.00 3.0052 6.6354 0 
359 1 0.51 70.00 14.4338 14.6474 0 
360 1 0.45 70.00 3.6802 2.1236 0 
361 1 0.48 70.00 8.8771 17.9458 0 
362 1 0.47 70.00 25.6516 15.9017 0 
363 1 0.41 70.00 2.4915 6.4107 0 
364 1 0.48 70.00 22.2371 21.7880 0 
365 1 0.45 70.00 13.1239 5.6973 0 
366 1 0.45 70.00 7.5387 1.0199 0 
367 1 0.48 70.00 1.6944 6.2470 0 
368 1 0.47 70.00 25.4430 7.1835 0 
369 1 0.43 70.00 9.8573 17.9188 0 
370 1 0.50 70.00 21.9373 4.5839 0 
371 1 0.43 70.00 26.8014 18.4689 0 
372 1 0.48 70.00 4.7740 10.0671 0 
373 1 0.46 70.00 4.4441 15.4016 0 
374 1 0.44 70.00 25.4509 16.6545 0 
375 1 0.52 70.00 7.8249 21.7331 0 
376 1 0.47 70.00 5.2644 18.5204 0 
377 1 0.46 70.00 12.9138 12.6776 0 
378 1 0.45 70.00 23.3532 11.4092 0 
379 1 0.48 70.00 8.8243 18.7557 0 
380 1 0.51 70.00 18.8228 0.6944 0 
381 1 0.46 70.00 11.1277 8.7538 0 
382 1 0.45 70.00 26.0329 15.6063 0 
383 1 0.41 70.00 15.8675 4.4177 0 
384 1 0.47 70.00 14.0348 19.5783 0 
385 1 0.46 70.00 16.8242 2.8384 0 
386 1 0.47 70.00 18.0561 2.5816 0 
387 1 0.44 70.00 17.8268 14.8341 0 
388 1 0.45 70.00 19.5887 16.4307 0 
389 1 0.51 70.00 25.3806 20.8753 0 
390 1 0.49 70.00 9.3837 9.5568 0 
391 1 0.43 70.00 9.6510 3.8112 0 
392 1 0.49 70.00 17.4011 14.7000 0 
393 1 0.47 70.00 9.3854 13.8730 0 
394 1 0.48 70.00 3.6422 21.7608 0 
395 1 0.51 70.00 7.3231 4.2021 0 
396 1 0.48 70.00 13.0146 3.5526 0 
397 1 0.50 70.00 6.1551 7.8855 0 
398 1 0.44 70.00 25.8351 19.4313 0 
399 1 0.41 70.00 25.3120 20.5993 0 
400 1 0.45 70.00 3.2993 5.2861 0 
401 1 0.45 70.00 17.8799 18.5430 0 
402 1 0.48 70.00 1.3690 4.8738 0 
403 1 0.48 70.00 18.2663 19.9049 0 
404 1 0.50 70.00 25.8360 5.7550 0 
405 1 0.43 70.00 15.7932 19.7497 0 
406 1 0.52 70.00 17.4684 6.6663 0 
407 1 0.50 70.00 13.6005 5.5622 0 
408 1 0.50 70.00 12.8081 16.1072 0 
409 1 0.45 70.00 24.6532 14.2553 0 
410 1 0.50 70.00 22.1686 5.1398 0 
411 1 0.39 70.00 8.7594 17.2111 0 
412 1 0.48 70.00 7.7312 6.1476 0 
413 1 0.50 70.00 8.8818 10.5178 0 
414 1 0.49 70.00 3.4067 9.3537 0 
415 1 0.44 70.00 4.4585 16.7769 0 
416 1 0.37 70.00 25.9172 21.6123 0 
417 1 0.46 70.00 12.8797 18.5628 0 
418 1 0.46 70.00 1.1334 11.2399 0 
419 1 0.41 70.00 10.1112 14.9039 0 
420 1 0.44 70.00 2.8346 5.8715 0 
421 1 0.50 70.00 23.4708 21.6868 0 
422 1 0.48 70.00 10.8636 1.2999 0 
423 1 0.45 70.00 20.0019 10.0673 0 
424 1 0.53 70.00 10.3383 2.1711 0 
425 1 0.47 70.00 24.5316 1.2391 0 
426 1 0.42 70.00 21.0865 16.8844 0 
427 1 0.47 70.00 16.8548 8.9994 0 
428 1 0.41 70.00 7.4084 9.7424 0 
429 1 0.42 70.00 1.9470 18.8058 0 
430 1 0.48 70.00 1.4754 18.7088 0 
431 1 0.45 70.00 12.5662 11.7609 0 
432 1 0.48 70.00 15.5025 8.9243 0 
433 1 0.43 70.00 6.9061 17.5528 0 
434 1 0.51 70.00 9.3949 17.8453 0 
435 1 0.46 70.00 24.5072 7.8940 0 
436 1 0.44 70.00 11.9825 15.7742 0 
437 1 0.49 70.00 8.7031 7.6222 0 
438 1 0.52 70.00 5.4445 5.3408 0 
439 1 0.49 70.00 16.4641 16.6100 0 
440 1 0.48 70.00 13.6094 9.8805 0 
441 1 0.46 70.00 24.2187 8.0509 0 
442 1 0.49 70.00 18.9276 3.3676 0 
443 1 0.46 70.00 2.2658 15.7882 0 
444 1 0.52 70.00 13.4444 20.3254 0 
445 1 0.45 70.00 21.4211 2.2456 0 
446 1 0.44 70.00 2.0144 5.8537 0 
447 1 0.40 70.00 23.9398 4.5378 0 
448 1 0.47 70.00 5.4746 16.0389 0 
449 1 0.47 70.00 25.2656 0.7629 0 
450 1 0.47 70.00 8.7122 20.9218 0 
451 1 0.48 70.00 25.7668 16.4450 0 
452 1 0.44 70.00 18.1862 15.5990 0 
453 1 0.48 70.00 11.9083 7.8993 0 
454 1 0.42 70.00 0.9123 3.2348 0 
455 1 0.48 70.00 7.0289 20.7137 0 
456 1 0.46 70.00 21.2995 12.8319 0 
457 1 0.47 70.00 11.4346 12.3329 0 
458 1 0.50 70.00 23.0759 19.5534 0 
459 1 0.43 70.00 9.9574 18.6080 0 
460 1 0.45 70.00 21.5455 3.0727 0 
461 1 0.42 70.00 0.7076 2.1455 0 
462 1 0.47 70.00 0.9952 6.4082 0 
463 1 0.48 70.00 9.0807 17.4700 0 
464 1 0.51 70.00 9.5653 8.1395 0 
465 1 0.44 70.00 13.9048 0.6887 0 
466 1 0.50 70.00 17.0344 13.6799 0 
467 1 0.52 70.00 27.4025 16.7643 0 
468 1 0.48 70.00 23.4976 15.8741 0 
469 1 0.46 70.00 11.5376 4.5500 0 
470 1 0.44 70.00 21.1308 6.9439 0 
471 1 0.50 70.00 17.3204 12.9148 0 
472 1 0.47 70.00 18.3246 14.6757 0 
473 1 0.47 70.00 3.2055 13.4258 0 
474 1 0.46 70.00 12.4570 3.0892 0 
475 1 0.54 70.00 20.1064 10.6200 0 
476 1 0.49 70.00 14.1742 11.1322 0 
477 1 0.50 70.00 1.4771 8.8536 0 
478 1 0.52 70.00 7.2871 2.0872 0 
479 1 0.48 70.00 16.5787 9.6510 0 
480 1 0.50 70.00 5.8889 3.0660 0 
481 1 0.48 70.00 8.2169 14.1037 0 
482 1 0.49 70.00 7.0070 12.0597 0 
483 1 0.48 70.00 5.4906 15.0047 0 
484 1 0.49 70.00 9.8362 3.0721 0 
485 1 0.48 70.00 1.9766 10.4473 0 
486 1 0.44 70.00 18.4986 21.5557 0 
487 1 0.44 70.00 18.8873 9.4157 0 
488 1 0.43 70.00 24.5516 15.0674 0 
489 1 0.49 70.00 5.1432 15.9260 0 
490 1 0.48 70.00 24.3438 16.7307 0 
491 1 0.50 70.00 17.7020 16.4925 0 
492 1 0.46 70.00 22.5685 16.2137 0 
493 1 0.54 70.00 0.9318 1.8939 0 
494 1 0.45 70.00 14.7402 2.1393 0 
495 1 0.48 70.00 22.8432 12.7806 0 
496 1 0.48 70.00 15.9127 3.5914 0 
497 1 0.46 70.00 17.6953 17.3699 0 
498 1 0.48 70.00 2.7900 17.7827 0 
499 1 0.46 70.00 4.1014 8.4612 0 
500 1 0.44 70.00 3.6224 2.5854 0 
501 1 0.50 70.00 24.7401 4.9225 0 
502 1 0.45 70.00 19.1303 14.9303 0 
503 1 0.47 70.00 23.3611 20.1360 0 
504 1 0.51 70.00 25.7321 8.2141 0 
505 1 0.45 70.00 12.2448 2.6208 0 
506 1 0.43 70.00 25.9919 20.6816 0 
507 1 0.45 70.00 10.9649 19.9828 0 
508 1 0.50 70.00 17.2615 18.4334 0 
509 1 0.44 70.00 20.3371 1.2041 0 
510 1 0.46 70.00 22.9070 10.3345 0 
511 1 0.49 70.00 7.2037 2.3669 0 
512 1 0.44 70.00 19.2472 8.8529 0 
513 1 0.47 70.00 14.9433 17.4964 0 
514 1 0.49 70.00 1.8791 3.6173 0 
515 1 0.43 70.00 18.5396 10.8974 0 
516 1 0.50 70.00 11.2902 15.3697 0 
517 1 0.50 70.00 12.5005 1.8299 0 
518 1 0.48 70.00 17.6747 5.5339 0 
519 1 0.45 70.00 7.8717 4.2075 0 
520 1 0.51 70.00 7.9087 13.9718 0 
521 1 0.46 70.00 17.2261 8.4548 0 
522 1 0.49 70.00 1.1480 16.7172 0 
523 1 0.42 70.00 5.0372 12.5285 0 
524 1 0.45 70.00 14.7596 15.6769 0 
525 1 0.46 70.00 5.9922 20.9358 0 
526 1 0.45 70.00 17.3207 6.3056 0 
527 1 0.46 70.00 23.8944 2.2654 0 
528 1 0.50 70.00 8.8581 0.8590 0 
529 1 0.51 70.00 21.8482 6.0605 0 
530 1 0.46 70.00 12.3774 10.0967 0 
531 1 0.47 70.00 1.8480 8.1406 0 
532 1 0.45 70.00 11.9038 7.2182 0 
533 1 0.49 70.00 9.2834 15.6145 0 
534 1 0.47 70.00 9.6156 7.8515 0 
535 1 0.49 70.00 19.1492 5.6277 0 
536 1 0.43 70.00 7.0517 13.3095 0 
537 1 0.50 70.00 22.6021 4.9349 0 
538 1 0.42 70.00 9.3424 7.6568 0 
539 1 0.42 70.00 24.3402 12.0422 0 
540 1 0.51 70.00 22.8572 3.8893 0 
541 1 0.42 70.00 15.4371 10.5695 0 
542 1 0.49 70.00 21.0037 3.1109 0 
543 1 0.42 70.00 18.8900 16.3602 0 
544 1 0.46 70.00 21.3139 17.0496 0 
545 1 0.48 70.00 1.5032 21.5873 0 
546 1 0.47 70.00 26.1766 3.7424 0 
547 1 0.51 70.00 3.8435 8.6614 0 
548 1 0.45 70.00 3.2511 18.7531 0 
549 1 0.49 70.00 7.1927 9.6174 0 
550 1 0.46 70.00 21.0927 15.4235 0 
551 1 0.50 70.00 18.2946 8.4040 0 
552 1 0.48 70.00 12.2416 4.2660 0 
553 1 0.40 70.00 21.6016 6.8207 0 
554 1 0.48 70.00 24.6989 10.6964 0 
555 1 0.47 70.00 17.2958 7.6517 0 
556 1 0.48 70.00 13.7677 1.8009 0 
557 1 0.46 70.00 9.8904 14.2286 0 
558 1 0.48 70.00 4.7118 14.5681 0 
559 1 0.41 70.00 26.0005 2.1001 0 
560 1 0.47 70.00 23.6471 1.5861 0 
561 1 0.47 70.00 12.1189 1.0841 0 
562 1 0.45 70.00 24.4313 6.4642 0 
563 1 0.46 70.00 20.6957 6.9433 0 
564 1 0.50 70.00 21.2579 11.3425 0 
565 1 0.51 70.00 5.4783 3.9734 0 
566 1 0.48 70.00 14.1063 1.1154 0 
567 1 0.47 70.00 19.3494 3.7185 0 
568 1 0.46 70.00 5.5662 13.1972 0 
569 1 0.48 70.00 14.1651 19.9880 0 
570 1 0.45 70.00 1.8195 15.9816 0 
571 1 0.44 70.00 15.6982 18.8323 0 
572 1 0.45 70.00 19.4644 10.1951 0 
573 1 0.46 70.00 27.6882 10.4491 0 
574 1 0.47 70.00 13.5175 11.4623 0 
575 1 0.50 70.00 19.2540 16.0839 0 
576 1 0.46 70.00 1.2079 19.7961 0 
577 1 0.47 70.00 6.1007 2.8280 0 
578 1 0.46 70.00 9.4824 14.2939 0 
579 1 0.43 70.00 25.0169 18.8627 0 
580 1 0.49 70.00 19.5347 18.5033 0 
581 1 0.42 70.00 23.6607 19.4928 0 
582 1 0.45 70.00 1.8838 13.6128 0 
583 1 0.44 70.00 21.8148 20.4875 0 
584 1 0.43 70.00 11.7072 19.0967 0 
585 1 0.49 70.00 17.5694 7.1515 0 
586 1 0.46 70.00 25.3317 9.8502 0 
587 1 0.45 70.00 19.6542 2.1043 0 
588 1 0.51 70.00 21.9157 12.3428 0 
589 1 0.51 70.00 22.5669 14.6856 0 
590 1 0.49 70.00 19.7733 11.6217 0 
591 1 0.44 70.00 6.5167 19.5194 0 
592 1 0.42 70.00 19.2817 3.1931 0 
593 1 0.49 70.00 10.7531 9.9564 0 
594 1 0.54 70.00 2.3885 5.9927 0 
595 1 0.41 70.00 19.2116 4.5497 0 
596 1 0.44 70.00 18.9128 12.4696 0 
597 1 0.46 70.00 18.3501 18.1634 0 
598 1 0.47 70.00 20.1774 4.5957 0 
599 1 0.48 70.00 13.8125 17.0111 0 
600 1 0.42 70.00 4.5208 4.1733 0 
601 1 0.44 70.00 4.6680 8.3004 0 
602 1 0.49 70.00 5.5437 16.2639 0 
603 1 0.47 70.00 19.7885 17.6311 0 
604 1 0.54 70.00 3.7238 7.2986 0 
605 1 0.48 70.00 23.0569 21.1955 0 
606 1 0.52 70.00 22.7775 8.4179 0 
607 1 0.43 70.00 26.0268 15.2059 0 
608 1 0.51 70.00 26.8380 12.5716 0 
609 1 0.51 70.00 2.7573 16.4571 0 
610 1 0.48 70.00 21.6947 15.7174 0 
611 1 0.44 70.00 18.4567 12.0059 0 
612 1 0.45 70.00 4.3230 8.7011 0 
613 1 0.45 70.00 14.0189 21.2774 0 
614 1 0.45 70.00 18.1696 13.3560 0 
615 1 0.41 70.00 1.7457 3.9379 0 
616 1 0.49 70.00 15.9811 4.0861 0 
