# LAMMPS data file for rigid bodies

5544 atoms

2 atom types

0.0 	 28.0 	 xlo xhi 
0.0 	 22.0 	 ylo yhi 
-1.0 	 1.0 	 zlo zhi 

Atoms

1 1 0.39 70.00 10.0572 5.5751 0 
2 1 0.48 70.00 26.5332 3.0710 0 
3 1 0.50 70.00 25.7476 13.9468 0 
4 1 0.44 70.00 21.0769 2.6830 0 
5 1 0.44 70.00 8.1759 17.6993 0 
6 1 0.44 70.00 26.9974 19.4131 0 
7 1 0.51 70.00 6.2964 15.8680 0 
8 1 0.50 70.00 18.2046 2.5382 0 
9 1 0.50 70.00 11.2588 3.0701 0 
10 1 0.45 70.00 4.8214 2.4958 0 
11 1 0.48 70.00 2.8803 5.3740 0 
12 1 0.51 70.00 20.7049 16.4119 0 
13 1 0.48 70.00 22.7058 13.7898 0 
14 1 0.53 70.00 19.4995 12.4127 0 
15 1 0.39 70.00 25.8847 11.4543 0 
16 1 0.47 70.00 5.0150 18.1181 0 
17 1 0.49 70.00 7.3530 2.8261 0 
18 1 0.43 70.00 18.7437 3.4865 0 
19 1 0.44 70.00 5.7050 8.4534 0 
20 1 0.44 70.00 9.4599 6.4777 0 
21 1 0.50 70.00 19.0079 21.1470 0 
22 1 0.44 70.00 27.6346 14.3169 0 
23 1 0.52 70.00 8.5331 5.1508 0 
24 1 0.48 70.00 7.7066 20.2918 0 
25 1 0.48 70.00 26.8354 8.2374 0 
26 1 0.47 70.00 12.7619 18.8331 0 
27 1 0.46 70.00 19.8425 4.6382 0 
28 1 0.45 70.00 9.0396 6.2953 0 
29 1 0.46 70.00 3.3883 9.6371 0 
30 1 0.48 70.00 7.4574 15.3151 0 
31 1 0.43 70.00 13.5417 4.8083 0 
32 1 0.43 70.00 22.0927 4.4148 0 
33 1 0.46 70.00 1.8414 4.6262 0 
34 1 0.46 70.00 19.7711 12.2969 0 
35 1 0.45 70.00 19.8240 8.1128 0 
36 1 0.46 70.00 5.9093 8.0474 0 
37 1 0.48 70.00 24.7087 7.6962 0 
38 1 0.46 70.00 10.9125 4.2943 0 
39 1 0.45 70.00 15.1795 17.7018 0 
40 1 0.45 70.00 15.3479 8.5388 0 
41 1 0.47 70.00 0.5183 1.5770 0 
42 1 0.45 70.00 21.5263 19.5516 0 
43 1 0.46 70.00 22.3463 4.3263 0 
44 1 0.47 70.00 8.8756 0.7949 0 
45 1 0.44 70.00 5.5079 2.0817 0 
46 1 0.45 70.00 11.5608 1.3404 0 
47 1 0.49 70.00 15.2117 5.0730 0 
48 1 0.47 70.00 18.1949 5.3660 0 
49 1 0.47 70.00 26.6146 2.2402 0 
50 1 0.51 70.00 13.9154 21.4835 0 
51 1 0.45 70.00 26.6540 3.2649 0 
52 1 0.48 70.00 19.6305 9.2123 0 
53 1 0.48 70.00 22.1108 10.5594 0 
54 1 0.49 70.00 6.4361 1.7013 0 
55 1 0.46 70.00 25.8478 20.0477 0 
56 1 0.47 70.00 17.9949 8.5582 0 
57 1 0.46 70.00 5.9525 5.8711 0 
58 1 0.45 70.00 14.7669 10.4678 0 
59 1 0.51 70.00 27.2813 1.8860 0 
60 1 0.45 70.00 17.2108 10.6207 0 
61 1 0.49 70.00 24.3944 1.9714 0 
62 1 0.51 70.00 13.8679 20.7552 0 
63 1 0.47 70.00 5.0663 15.5051 0 
64 1 0.47 70.00 12.5307 20.9454 0 
65 1 0.49 70.00 8.0476 12.8292 0 
66 1 0.48 70.00 17.5906 4.5165 0 
67 1 0.53 70.00 12.4921 14.3638 0 
68 1 0.44 70.00 3.3548 4.7329 0 
69 1 0.46 70.00 20.4711 18.9754 0 
70 1 0.49 70.00 16.8736 8.4064 0 
71 1 0.39 70.00 24.4951 15.6850 0 
72 1 0.43 70.00 7.9097 21.3198 0 
73 1 0.42 70.00 3.8985 1.3787 0 
74 1 0.43 70.00 23.7984 14.3631 0 
75 1 0.51 70.00 22.9359 12.8749 0 
76 1 0.48 70.00 18.2050 16.1273 0 
77 1 0.47 70.00 4.1771 18.6046 0 
78 1 0.50 70.00 10.3365 19.8389 0 
79 1 0.41 70.00 21.5445 5.1554 0 
80 1 0.46 70.00 11.6945 13.4303 0 
81 1 0.45 70.00 23.6078 9.2637 0 
82 1 0.45 70.00 26.9630 3.2755 0 
83 1 0.47 70.00 16.9642 21.7329 0 
84 1 0.45 70.00 19.2244 17.0515 0 
85 1 0.48 70.00 16.3971 15.3243 0 
86 1 0.44 70.00 8.2308 3.3950 0 
87 1 0.46 70.00 11.4464 14.1514 0 
88 1 0.46 70.00 17.2348 20.7365 0 
89 1 0.46 70.00 16.7798 18.9230 0 
90 1 0.46 70.00 6.5324 8.1449 0 
91 1 0.48 70.00 13.4202 21.0068 0 
92 1 0.45 70.00 18.6718 11.1084 0 
93 1 0.50 70.00 3.6699 6.4504 0 
94 1 0.51 70.00 14.9208 17.8907 0 
95 1 0.45 70.00 24.7902 16.4523 0 
96 1 0.46 70.00 9.4153 4.7700 0 
97 1 0.45 70.00 26.4689 9.8593 0 
98 1 0.48 70.00 2.1171 6.3728 0 
99 1 0.52 70.00 4.5234 13.1612 0 
100 1 0.49 70.00 4.9812 8.0941 0 
101 1 0.50 70.00 12.0936 18.1813 0 
102 1 0.43 70.00 8.4528 10.2121 0 
103 1 0.42 70.00 21.0442 18.0342 0 
104 1 0.51 70.00 23.5539 6.9046 0 
105 1 0.48 70.00 15.4129 16.1076 0 
106 1 0.49 70.00 7.9649 13.4361 0 
107 1 0.46 70.00 5.5692 19.7564 0 
108 1 0.45 70.00 0.6752 18.7525 0 
109 1 0.50 70.00 21.8052 19.3253 0 
110 1 0.49 70.00 26.8055 19.0213 0 
111 1 0.44 70.00 11.5940 4.2936 0 
112 1 0.50 70.00 4.7097 11.0833 0 
113 1 0.49 70.00 8.3271 21.4252 0 
114 1 0.50 70.00 26.0396 5.1486 0 
115 1 0.48 70.00 10.1210 2.9772 0 
116 1 0.53 70.00 26.9218 1.9324 0 
117 1 0.51 70.00 9.8579 13.2369 0 
118 1 0.44 70.00 13.2822 5.6107 0 
119 1 0.45 70.00 4.1679 4.2653 0 
120 1 0.42 70.00 9.3321 3.7046 0 
121 1 0.49 70.00 24.8970 8.9891 0 
122 1 0.51 70.00 25.7846 18.5178 0 
123 1 0.46 70.00 17.3059 4.3638 0 
124 1 0.41 70.00 10.6420 9.6447 0 
125 1 0.51 70.00 19.0978 0.5355 0 
126 1 0.48 70.00 19.3593 2.9533 0 
127 1 0.49 70.00 12.3068 11.6744 0 
128 1 0.47 70.00 6.4156 9.8180 0 
129 1 0.45 70.00 12.8030 6.3366 0 
130 1 0.44 70.00 6.4991 15.4730 0 
131 1 0.48 70.00 0.5307 8.6565 0 
132 1 0.46 70.00 16.3248 5.6034 0 
133 1 0.47 70.00 20.4148 19.3043 0 
134 1 0.49 70.00 15.6837 10.2198 0 
135 1 0.47 70.00 21.3564 7.8681 0 
136 1 0.43 70.00 2.8842 10.2909 0 
137 1 0.45 70.00 17.1976 14.6237 0 
138 1 0.47 70.00 12.6685 6.7891 0 
139 1 0.47 70.00 17.5767 19.8989 0 
140 1 0.42 70.00 21.3643 5.6293 0 
141 1 0.56 70.00 3.2474 1.9269 0 
142 1 0.48 70.00 17.3179 4.9100 0 
143 1 0.47 70.00 25.1950 14.3790 0 
144 1 0.53 70.00 10.1238 14.9044 0 
145 1 0.47 70.00 24.6139 14.0626 0 
146 1 0.46 70.00 12.7886 7.0736 0 
147 1 0.49 70.00 24.8562 18.5634 0 
148 1 0.45 70.00 6.1959 2.1766 0 
149 1 0.47 70.00 19.2805 18.8541 0 
150 1 0.45 70.00 2.5803 12.8975 0 
151 1 0.46 70.00 5.2422 5.1089 0 
152 1 0.47 70.00 18.2274 12.1608 0 
153 1 0.47 70.00 4.5352 16.4945 0 
154 1 0.43 70.00 8.4545 4.0932 0 
155 1 0.45 70.00 13.0275 13.6742 0 
156 1 0.52 70.00 5.0779 7.2279 0 
157 1 0.44 70.00 1.4540 17.0390 0 
158 1 0.46 70.00 2.6879 19.1507 0 
159 1 0.42 70.00 6.8037 7.6379 0 
160 1 0.45 70.00 4.5136 6.3004 0 
161 1 0.46 70.00 19.0329 14.3704 0 
162 1 0.51 70.00 21.7036 12.1454 0 
163 1 0.45 70.00 7.8807 21.5393 0 
164 1 0.50 70.00 2.5824 0.6274 0 
165 1 0.48 70.00 27.4442 15.8335 0 
166 1 0.48 70.00 27.0007 9.9301 0 
167 1 0.45 70.00 25.5072 4.4278 0 
168 1 0.45 70.00 8.8484 17.3260 0 
169 1 0.50 70.00 13.7844 14.0208 0 
170 1 0.47 70.00 1.6894 13.1705 0 
171 1 0.48 70.00 25.9702 10.2963 0 
172 1 0.47 70.00 0.9320 21.5612 0 
173 1 0.46 70.00 22.1534 2.5447 0 
174 1 0.47 70.00 23.6967 3.4467 0 
175 1 0.47 70.00 4.8042 3.9363 0 
176 1 0.48 70.00 23.2553 17.6299 0 
177 1 0.45 70.00 12.6162 19.9211 0 
178 1 0.42 70.00 27.6895 7.2100 0 
179 1 0.44 70.00 14.1858 16.4971 0 
180 1 0.43 70.00 4.7803 9.5208 0 
181 1 0.41 70.00 20.9434 1.8229 0 
182 1 0.48 70.00 21.5228 1.5258 0 
183 1 0.45 70.00 15.7904 6.6345 0 
184 1 0.47 70.00 7.7483 3.0716 0 
185 1 0.47 70.00 23.5388 9.7342 0 
186 1 0.50 70.00 2.5512 7.4061 0 
187 1 0.50 70.00 12.3328 17.6555 0 
188 1 0.47 70.00 23.8179 17.6743 0 
189 1 0.44 70.00 17.7340 14.0473 0 
190 1 0.49 70.00 18.5695 0.8147 0 
191 1 0.51 70.00 26.9604 4.7941 0 
192 1 0.45 70.00 20.8390 2.0062 0 
193 1 0.51 70.00 25.6643 15.6319 0 
194 1 0.46 70.00 25.4526 1.8977 0 
195 1 0.45 70.00 18.4354 8.4190 0 
196 1 0.41 70.00 24.8710 10.9057 0 
197 1 0.45 70.00 16.2897 15.7864 0 
198 1 0.47 70.00 4.6090 4.5737 0 
199 1 0.47 70.00 5.7809 18.4455 0 
200 1 0.45 70.00 16.4436 2.3506 0 
201 1 0.42 70.00 19.7741 13.9290 0 
202 1 0.46 70.00 12.4871 6.3433 0 
203 1 0.43 70.00 4.1032 8.3242 0 
204 1 0.52 70.00 17.8271 9.1269 0 
205 1 0.46 70.00 10.5178 0.6212 0 
206 1 0.48 70.00 26.8512 6.6429 0 
207 1 0.43 70.00 16.3086 5.9946 0 
208 1 0.51 70.00 1.7112 4.0704 0 
209 1 0.50 70.00 17.6949 12.6767 0 
210 1 0.43 70.00 8.0197 6.7504 0 
211 1 0.44 70.00 17.3383 3.5443 0 
212 1 0.48 70.00 6.5036 6.1203 0 
213 1 0.48 70.00 25.4868 21.1915 0 
214 1 0.46 70.00 22.8623 13.5218 0 
215 1 0.52 70.00 7.2722 14.0232 0 
216 1 0.47 70.00 1.1264 20.1404 0 
217 1 0.50 70.00 5.8753 20.0158 0 
218 1 0.44 70.00 21.2572 8.7015 0 
219 1 0.47 70.00 27.1641 5.2553 0 
220 1 0.44 70.00 6.5428 21.1166 0 
221 1 0.46 70.00 13.1109 6.0083 0 
222 1 0.47 70.00 10.9412 19.5991 0 
223 1 0.46 70.00 8.5924 17.2272 0 
224 1 0.49 70.00 14.2387 9.2311 0 
225 1 0.50 70.00 17.4044 8.4728 0 
226 1 0.51 70.00 22.5632 3.1786 0 
227 1 0.48 70.00 16.8896 14.0629 0 
228 1 0.44 70.00 26.5884 20.4751 0 
229 1 0.47 70.00 19.5780 15.9016 0 
230 1 0.45 70.00 13.6983 16.9339 0 
231 1 0.45 70.00 5.0706 19.6482 0 
232 1 0.53 70.00 16.5759 9.5565 0 
233 1 0.47 70.00 5.1519 20.3003 0 
234 1 0.47 70.00 12.3275 14.9496 0 
235 1 0.43 70.00 27.4035 13.6952 0 
236 1 0.42 70.00 25.2878 12.7246 0 
237 1 0.46 70.00 7.6560 17.8318 0 
238 1 0.49 70.00 22.7834 2.1399 0 
239 1 0.45 70.00 25.0029 6.7738 0 
240 1 0.49 70.00 22.9169 21.4699 0 
241 1 0.47 70.00 11.1887 13.9924 0 
242 1 0.47 70.00 12.0166 20.0816 0 
243 1 0.44 70.00 17.5363 3.7459 0 
244 1 0.51 70.00 22.2897 11.4328 0 
245 1 0.55 70.00 24.2204 4.1953 0 
246 1 0.48 70.00 17.2325 0.9768 0 
247 1 0.46 70.00 16.3675 14.2712 0 
248 1 0.49 70.00 13.8726 14.2681 0 
249 1 0.46 70.00 6.5490 5.0507 0 
250 1 0.45 70.00 5.1538 16.1469 0 
251 1 0.46 70.00 7.8676 17.3318 0 
252 1 0.45 70.00 26.3639 20.6344 0 
253 1 0.46 70.00 18.2792 17.1223 0 
254 1 0.45 70.00 24.2113 21.0399 0 
255 1 0.45 70.00 21.9750 5.8056 0 
256 1 0.44 70.00 12.6679 16.0260 0 
257 1 0.52 70.00 7.1041 18.9398 0 
258 1 0.50 70.00 21.2559 10.2567 0 
259 1 0.48 70.00 23.8012 4.7439 0 
260 1 0.38 70.00 20.1437 18.4471 0 
261 1 0.48 70.00 22.2966 21.7629 0 
262 1 0.46 70.00 19.4319 12.7332 0 
263 1 0.51 70.00 24.7403 21.0235 0 
264 1 0.48 70.00 0.8773 6.5628 0 
265 1 0.46 70.00 26.9775 5.0012 0 
266 1 0.50 70.00 16.5373 12.1780 0 
267 1 0.48 70.00 23.4838 21.3539 0 
268 1 0.49 70.00 17.3394 6.4571 0 
269 1 0.39 70.00 5.3742 13.4632 0 
270 1 0.52 70.00 19.2151 13.7738 0 
271 1 0.46 70.00 4.8831 11.8161 0 
272 1 0.47 70.00 0.7541 9.8678 0 
273 1 0.46 70.00 14.5559 9.8493 0 
274 1 0.46 70.00 7.4168 14.8399 0 
275 1 0.43 70.00 6.0657 4.8161 0 
276 1 0.47 70.00 3.1634 9.3446 0 
277 1 0.48 70.00 25.0685 1.2378 0 
278 1 0.47 70.00 24.7239 4.2737 0 
279 1 0.47 70.00 8.1611 13.7550 0 
280 1 0.48 70.00 13.3889 4.1309 0 
281 1 0.47 70.00 7.3402 13.2286 0 
282 1 0.44 70.00 24.7955 17.5194 0 
283 1 0.45 70.00 5.0268 2.1795 0 
284 1 0.49 70.00 22.9430 18.5749 0 
285 1 0.53 70.00 5.6256 12.0789 0 
286 1 0.46 70.00 22.4184 0.8861 0 
287 1 0.46 70.00 15.6611 2.1996 0 
288 1 0.46 70.00 14.1468 9.4588 0 
289 1 0.49 70.00 24.0542 15.9104 0 
290 1 0.42 70.00 27.7805 13.1782 0 
291 1 0.50 70.00 12.7518 10.0755 0 
292 1 0.51 70.00 17.7166 5.9510 0 
293 1 0.47 70.00 6.0105 7.3832 0 
294 1 0.49 70.00 11.5411 15.8304 0 
295 1 0.48 70.00 18.1655 16.5082 0 
296 1 0.43 70.00 25.2549 11.1363 0 
297 1 0.44 70.00 20.5297 4.9131 0 
298 1 0.48 70.00 19.8237 1.9265 0 
299 1 0.45 70.00 1.4691 4.0258 0 
300 1 0.50 70.00 12.3519 11.9880 0 
301 1 0.45 70.00 7.7901 11.4710 0 
302 1 0.46 70.00 23.5048 4.3775 0 
303 1 0.50 70.00 24.0518 16.3238 0 
304 1 0.45 70.00 12.9594 2.1260 0 
305 1 0.51 70.00 27.2186 2.3488 0 
306 1 0.48 70.00 4.0379 21.3890 0 
307 1 0.44 70.00 2.0258 7.7173 0 
308 1 0.44 70.00 24.5340 14.4583 0 
309 1 0.52 70.00 21.6800 3.5677 0 
310 1 0.51 70.00 23.7048 20.7756 0 
311 1 0.46 70.00 5.4448 1.4593 0 
312 1 0.43 70.00 10.1734 6.9459 0 
313 1 0.45 70.00 16.7708 19.9525 0 
314 1 0.47 70.00 24.7560 10.0273 0 
315 1 0.47 70.00 26.1934 6.1860 0 
316 1 0.49 70.00 3.8728 6.7316 0 
317 1 0.43 70.00 6.1934 6.3006 0 
318 1 0.46 70.00 8.7564 4.5543 0 
319 1 0.49 70.00 22.0358 5.3148 0 
320 1 0.45 70.00 3.8335 11.9395 0 
321 1 0.45 70.00 12.6323 10.2709 0 
322 1 0.47 70.00 11.7700 14.3487 0 
323 1 0.50 70.00 18.7455 17.8356 0 
324 1 0.49 70.00 3.3365 11.5923 0 
325 1 0.50 70.00 17.4164 17.3202 0 
326 1 0.45 70.00 7.3034 11.2951 0 
327 1 0.51 70.00 10.3273 7.2357 0 
328 1 0.47 70.00 6.3589 4.9158 0 
329 1 0.46 70.00 10.3967 9.5485 0 
330 1 0.48 70.00 26.4922 20.9077 0 
331 1 0.49 70.00 26.8151 7.2326 0 
332 1 0.45 70.00 4.3231 13.8573 0 
333 1 0.43 70.00 3.8986 13.8599 0 
334 1 0.46 70.00 3.5525 11.3390 0 
335 1 0.42 70.00 13.5230 19.2091 0 
336 1 0.50 70.00 24.5611 17.3855 0 
337 1 0.44 70.00 24.7504 20.2408 0 
338 1 0.45 70.00 2.7085 7.7169 0 
339 1 0.46 70.00 20.4990 15.3941 0 
340 1 0.47 70.00 22.0118 16.7851 0 
341 1 0.47 70.00 19.3486 20.4092 0 
342 1 0.48 70.00 25.5198 0.9730 0 
343 1 0.49 70.00 16.0244 0.6062 0 
344 1 0.44 70.00 27.2967 0.8465 0 
345 1 0.47 70.00 26.7797 11.6023 0 
346 1 0.52 70.00 3.1808 6.1747 0 
347 1 0.44 70.00 20.1569 3.7184 0 
348 1 0.48 70.00 10.4852 8.9720 0 
349 1 0.45 70.00 9.2200 17.3101 0 
350 1 0.42 70.00 4.1903 3.3706 0 
351 1 0.44 70.00 5.3733 17.5214 0 
352 1 0.51 70.00 1.2629 10.2113 0 
353 1 0.49 70.00 18.6446 1.3863 0 
354 1 0.48 70.00 22.6588 9.4977 0 
355 1 0.47 70.00 9.7950 7.9940 0 
356 1 0.45 70.00 21.0175 9.6896 0 
357 1 0.50 70.00 1.2972 8.0310 0 
358 1 0.48 70.00 0.6176 19.1232 0 
359 1 0.48 70.00 2.2986 17.6799 0 
360 1 0.41 70.00 13.3817 8.6747 0 
361 1 0.48 70.00 6.4471 8.4105 0 
362 1 0.40 70.00 25.2023 0.5747 0 
363 1 0.48 70.00 5.3312 14.4634 0 
364 1 0.43 70.00 14.4333 10.6049 0 
365 1 0.47 70.00 9.5026 6.7398 0 
366 1 0.49 70.00 2.7170 17.9250 0 
367 1 0.46 70.00 26.0813 15.9820 0 
368 1 0.42 70.00 4.8614 3.2951 0 
369 1 0.47 70.00 13.6676 9.3988 0 
370 1 0.47 70.00 22.8632 18.3255 0 
371 1 0.45 70.00 8.9901 17.1160 0 
372 1 0.53 70.00 2.5837 5.7269 0 
373 1 0.49 70.00 11.3288 7.3231 0 
374 1 0.46 70.00 15.4529 2.6845 0 
375 1 0.49 70.00 7.5201 16.7031 0 
376 1 0.45 70.00 4.2702 9.2961 0 
377 1 0.45 70.00 23.1234 8.2383 0 
378 1 0.44 70.00 26.4233 12.8901 0 
379 1 0.49 70.00 23.4574 9.5061 0 
380 1 0.41 70.00 22.4827 3.8263 0 
381 1 0.40 70.00 15.5123 21.7912 0 
382 1 0.47 70.00 19.0798 10.8471 0 
383 1 0.47 70.00 20.8333 3.3069 0 
384 1 0.52 70.00 25.9809 8.6543 0 
385 1 0.45 70.00 22.1987 18.0300 0 
386 1 0.45 70.00 4.3867 10.9245 0 
387 1 0.49 70.00 7.5813 3.9334 0 
388 1 0.47 70.00 2.1843 10.6151 0 
389 1 0.51 70.00 27.4032 15.0647 0 
390 1 0.48 70.00 12.3914 3.5449 0 
391 1 0.51 70.00 26.0214 2.2961 0 
392 1 0.45 70.00 26.6665 9.2992 0 
393 1 0.53 70.00 2.0341 4.9044 0 
394 1 0.48 70.00 4.8000 15.7179 0 
395 1 0.49 70.00 6.0070 6.6416 0 
396 1 0.51 70.00 25.4452 7.3880 0 
397 1 0.46 70.00 19.5900 4.7512 0 
398 1 0.47 70.00 6.4879 4.3540 0 
399 1 0.44 70.00 19.0355 13.4860 0 
400 1 0.51 70.00 24.7853 13.1103 0 
401 1 0.51 70.00 12.4813 20.7143 0 
402 1 0.43 70.00 15.3764 15.7888 0 
403 1 0.45 70.00 21.8104 16.1597 0 
404 1 0.46 70.00 20.9383 4.8739 0 
405 1 0.50 70.00 2.3161 14.6807 0 
406 1 0.49 70.00 10.9094 1.4626 0 
407 1 0.45 70.00 18.9326 9.9874 0 
408 1 0.53 70.00 7.4409 8.1750 0 
409 1 0.50 70.00 8.7846 5.1828 0 
410 1 0.48 70.00 21.5000 8.1720 0 
411 1 0.46 70.00 11.1775 5.2154 0 
412 1 0.46 70.00 5.1987 19.3263 0 
413 1 0.45 70.00 18.1733 1.2431 0 
414 1 0.51 70.00 3.8971 19.6669 0 
415 1 0.48 70.00 13.1158 9.8907 0 
416 1 0.44 70.00 21.9385 14.2213 0 
417 1 0.46 70.00 15.7415 18.5154 0 
418 1 0.47 70.00 11.7869 2.8673 0 
419 1 0.46 70.00 0.8428 2.9499 0 
420 1 0.47 70.00 6.7937 3.2052 0 
421 1 0.45 70.00 16.5042 8.2981 0 
422 1 0.48 70.00 23.5002 17.9776 0 
423 1 0.47 70.00 6.3312 12.6095 0 
424 1 0.44 70.00 24.7757 6.5610 0 
425 1 0.43 70.00 14.9191 17.6045 0 
426 1 0.51 70.00 3.7602 20.4409 0 
427 1 0.45 70.00 9.7824 9.6828 0 
428 1 0.48 70.00 9.7508 14.0611 0 
429 1 0.44 70.00 9.5785 1.8110 0 
430 1 0.46 70.00 6.5377 11.8257 0 
431 1 0.50 70.00 11.0256 12.3131 0 
432 1 0.49 70.00 3.1666 18.5776 0 
433 1 0.48 70.00 4.3460 5.5357 0 
434 1 0.52 70.00 13.5738 12.2358 0 
435 1 0.54 70.00 24.7447 1.2006 0 
436 1 0.52 70.00 7.3582 10.8375 0 
437 1 0.47 70.00 24.9436 15.5507 0 
438 1 0.44 70.00 14.6473 12.0614 0 
439 1 0.48 70.00 22.2186 6.6973 0 
440 1 0.43 70.00 21.0434 8.4118 0 
441 1 0.51 70.00 14.1944 8.4109 0 
442 1 0.51 70.00 11.8045 8.7146 0 
443 1 0.42 70.00 23.0857 11.4716 0 
444 1 0.48 70.00 4.6890 7.1374 0 
445 1 0.52 70.00 22.8898 20.6438 0 
446 1 0.43 70.00 15.7333 18.9559 0 
447 1 0.49 70.00 9.8765 21.7508 0 
448 1 0.46 70.00 2.9170 14.0563 0 
449 1 0.40 70.00 14.9014 18.7228 0 
450 1 0.46 70.00 3.9809 17.0804 0 
451 1 0.45 70.00 2.0258 19.1109 0 
452 1 0.46 70.00 27.3755 8.3382 0 
453 1 0.48 70.00 20.3924 1.3626 0 
454 1 0.50 70.00 20.7107 7.3785 0 
455 1 0.48 70.00 22.6142 2.9747 0 
456 1 0.48 70.00 20.6974 14.1804 0 
457 1 0.47 70.00 16.5398 10.9526 0 
458 1 0.45 70.00 15.8875 2.1563 0 
459 1 0.46 70.00 20.7836 1.3614 0 
460 1 0.43 70.00 18.9169 2.3479 0 
461 1 0.45 70.00 0.7666 14.0209 0 
462 1 0.46 70.00 22.8430 4.3476 0 
463 1 0.46 70.00 4.1683 14.3398 0 
464 1 0.48 70.00 1.9204 15.9617 0 
465 1 0.46 70.00 27.6630 18.9368 0 
466 1 0.41 70.00 23.1409 13.6921 0 
467 1 0.46 70.00 25.9573 13.6394 0 
468 1 0.45 70.00 26.0504 18.5018 0 
469 1 0.43 70.00 13.2446 14.4685 0 
470 1 0.48 70.00 22.2474 14.9539 0 
471 1 0.46 70.00 13.9383 5.7235 0 
472 1 0.45 70.00 20.0224 19.8498 0 
473 1 0.48 70.00 13.7844 14.6664 0 
474 1 0.49 70.00 24.4175 13.2165 0 
475 1 0.49 70.00 11.1905 3.3203 0 
476 1 0.45 70.00 18.6734 6.4759 0 
477 1 0.48 70.00 19.7955 10.0271 0 
478 1 0.49 70.00 25.4256 4.7474 0 
479 1 0.46 70.00 19.5748 14.3151 0 
480 1 0.42 70.00 13.8466 8.2892 0 
481 1 0.44 70.00 19.3945 13.1649 0 
482 1 0.46 70.00 14.0317 18.4641 0 
483 1 0.46 70.00 19.8839 3.7594 0 
484 1 0.50 70.00 11.4883 9.0357 0 
485 1 0.43 70.00 19.9904 13.5780 0 
486 1 0.47 70.00 25.3636 15.1769 0 
487 1 0.48 70.00 17.9287 3.9488 0 
488 1 0.43 70.00 13.4082 0.8475 0 
489 1 0.47 70.00 23.1205 4.3288 0 
490 1 0.49 70.00 20.9315 11.1098 0 
491 1 0.44 70.00 24.8298 10.3211 0 
492 1 0.53 70.00 12.9229 20.6210 0 
493 1 0.46 70.00 10.8602 16.2101 0 
494 1 0.47 70.00 22.4020 16.5077 0 
495 1 0.47 70.00 7.2460 19.9895 0 
496 1 0.47 70.00 23.7962 1.0230 0 
497 1 0.45 70.00 10.5968 1.6539 0 
498 1 0.50 70.00 4.5732 14.1691 0 
499 1 0.45 70.00 8.8582 2.3546 0 
500 1 0.41 70.00 23.1130 3.8485 0 
501 1 0.51 70.00 26.2172 5.9030 0 
502 1 0.46 70.00 24.3378 21.6307 0 
503 1 0.48 70.00 16.2572 12.0400 0 
504 1 0.49 70.00 6.4401 2.3168 0 
505 1 0.43 70.00 22.4198 15.7922 0 
506 1 0.47 70.00 7.6112 4.7742 0 
507 1 0.45 70.00 14.3484 3.2939 0 
508 1 0.44 70.00 10.8610 4.5489 0 
509 1 0.44 70.00 14.3096 18.8485 0 
510 1 0.45 70.00 3.3052 10.4411 0 
511 1 0.47 70.00 19.0485 16.6622 0 
512 1 0.46 70.00 11.7247 2.2132 0 
513 1 0.42 70.00 15.2528 7.2564 0 
514 1 0.47 70.00 21.4488 17.4755 0 
515 1 0.42 70.00 26.4971 11.5734 0 
516 1 0.42 70.00 3.9336 8.4561 0 
517 1 0.49 70.00 5.9781 7.7160 0 
518 1 0.44 70.00 26.1867 14.7998 0 
519 1 0.47 70.00 4.3823 19.2122 0 
520 1 0.48 70.00 14.7315 3.2796 0 
521 1 0.48 70.00 13.9986 4.8888 0 
522 1 0.51 70.00 18.9794 9.7889 0 
523 1 0.40 70.00 9.5925 2.2759 0 
524 1 0.49 70.00 27.5233 7.0929 0 
525 1 0.48 70.00 3.5361 16.5576 0 
526 1 0.47 70.00 7.1687 7.4860 0 
527 1 0.47 70.00 22.1720 19.9767 0 
528 1 0.46 70.00 24.0195 13.6419 0 
529 1 0.52 70.00 9.0807 21.5521 0 
530 1 0.46 70.00 27.7477 12.9308 0 
531 1 0.44 70.00 1.2593 20.8016 0 
532 1 0.48 70.00 23.2750 16.9380 0 
533 1 0.44 70.00 18.3954 5.5315 0 
534 1 0.49 70.00 7.6896 3.2675 0 
535 1 0.48 70.00 1.1109 16.5802 0 
536 1 0.44 70.00 14.9416 2.6355 0 
537 1 0.49 70.00 16.7805 10.8218 0 
538 1 0.48 70.00 21.1805 11.4548 0 
539 1 0.44 70.00 2.6809 18.3811 0 
540 1 0.43 70.00 17.1572 18.6840 0 
541 1 0.49 70.00 26.9612 14.4126 0 
542 1 0.47 70.00 17.1634 21.7120 0 
543 1 0.48 70.00 2.5807 10.0381 0 
544 1 0.46 70.00 17.7171 10.6356 0 
545 1 0.50 70.00 3.5043 14.2885 0 
546 1 0.55 70.00 17.3037 9.5749 0 
547 1 0.53 70.00 7.1820 1.0488 0 
548 1 0.51 70.00 26.8683 15.1474 0 
549 1 0.45 70.00 1.1700 6.1078 0 
550 1 0.50 70.00 6.0030 18.0624 0 
551 1 0.47 70.00 18.3322 14.8654 0 
552 1 0.50 70.00 15.5449 13.3296 0 
553 1 0.50 70.00 7.2860 19.6687 0 
554 1 0.44 70.00 1.3463 12.5117 0 
555 1 0.46 70.00 22.9515 4.5455 0 
556 1 0.51 70.00 20.3474 10.4827 0 
557 1 0.50 70.00 13.4774 5.9688 0 
558 1 0.48 70.00 14.5170 1.9551 0 
559 1 0.46 70.00 9.9775 12.3911 0 
560 1 0.50 70.00 27.0958 13.2546 0 
561 1 0.50 70.00 21.7142 5.9406 0 
562 1 0.47 70.00 15.2565 15.1654 0 
563 1 0.47 70.00 15.9782 14.4936 0 
564 1 0.48 70.00 23.2227 21.3081 0 
565 1 0.47 70.00 19.8983 17.6857 0 
566 1 0.43 70.00 8.4321 10.8497 0 
567 1 0.47 70.00 15.8060 9.7159 0 
568 1 0.49 70.00 3.3297 8.0220 0 
569 1 0.48 70.00 5.7858 19.4689 0 
570 1 0.44 70.00 16.5959 10.7332 0 
571 1 0.44 70.00 21.7814 20.8469 0 
572 1 0.49 70.00 13.3781 7.5859 0 
573 1 0.47 70.00 13.6265 16.0112 0 
574 1 0.44 70.00 24.1199 20.7699 0 
575 1 0.53 70.00 13.6834 3.8945 0 
576 1 0.45 70.00 19.1129 18.0339 0 
577 1 0.48 70.00 10.9678 12.1020 0 
578 1 0.49 70.00 5.1628 11.1723 0 
579 1 0.45 70.00 15.1024 16.2959 0 
580 1 0.46 70.00 15.8272 18.1502 0 
581 1 0.47 70.00 19.0729 20.0288 0 
582 1 0.50 70.00 17.5244 6.7709 0 
583 1 0.53 70.00 18.3407 4.0580 0 
584 1 0.49 70.00 19.5270 1.7222 0 
585 1 0.51 70.00 16.1073 3.9722 0 
586 1 0.48 70.00 7.3172 10.0654 0 
587 1 0.46 70.00 11.0378 10.4380 0 
588 1 0.47 70.00 26.9795 1.3757 0 
589 1 0.50 70.00 4.1480 5.2078 0 
590 1 0.52 70.00 12.2502 20.0844 0 
591 1 0.52 70.00 24.0136 7.3559 0 
592 1 0.46 70.00 10.5218 1.9851 0 
593 1 0.52 70.00 16.9379 11.7316 0 
594 1 0.47 70.00 22.9047 9.0179 0 
595 1 0.52 70.00 14.0611 14.5300 0 
596 1 0.51 70.00 1.5686 18.0089 0 
597 1 0.51 70.00 17.7422 15.6472 0 
598 1 0.44 70.00 23.9189 12.9335 0 
599 1 0.42 70.00 8.6575 16.9296 0 
600 1 0.48 70.00 23.3213 17.8842 0 
601 1 0.47 70.00 13.6774 9.7001 0 
602 1 0.42 70.00 12.4007 18.9647 0 
603 1 0.56 70.00 13.9918 12.1598 0 
604 1 0.45 70.00 7.9130 20.5007 0 
605 1 0.51 70.00 6.0260 19.4594 0 
606 1 0.52 70.00 14.8788 13.9072 0 
607 1 0.46 70.00 13.6071 2.4941 0 
608 1 0.48 70.00 2.0420 16.9820 0 
609 1 0.43 70.00 12.3138 10.6108 0 
610 1 0.40 70.00 3.4652 3.6767 0 
611 1 0.41 70.00 18.2195 18.7216 0 
612 1 0.52 70.00 11.2165 4.7823 0 
613 1 0.43 70.00 7.3221 18.1842 0 
614 1 0.47 70.00 8.2245 10.0809 0 
615 1 0.50 70.00 19.5024 17.5159 0 
616 1 0.49 70.00 22.9927 3.1497 0 
617 1 0.44 70.00 27.5709 6.1857 0 
618 1 0.48 70.00 18.5787 9.3851 0 
619 1 0.42 70.00 2.3312 14.1015 0 
620 1 0.49 70.00 1.2663 2.1019 0 
621 1 0.48 70.00 5.0444 3.5583 0 
622 1 0.44 70.00 8.0662 9.2250 0 
623 1 0.45 70.00 9.9291 7.4888 0 
624 1 0.54 70.00 3.0793 1.2615 0 
625 1 0.42 70.00 22.2498 10.1908 0 
626 1 0.45 70.00 8.6520 7.1262 0 
627 1 0.50 70.00 6.5295 16.2977 0 
628 1 0.43 70.00 8.1470 9.8875 0 
629 1 0.47 70.00 7.5283 20.5261 0 
630 1 0.44 70.00 17.9967 8.3116 0 
631 1 0.51 70.00 14.3606 10.2282 0 
632 1 0.50 70.00 13.7738 11.3423 0 
633 1 0.50 70.00 21.0713 6.3602 0 
634 1 0.48 70.00 9.4819 21.3119 0 
635 1 0.44 70.00 16.2024 12.9529 0 
636 1 0.51 70.00 18.0017 15.2124 0 
637 1 0.47 70.00 9.7237 20.5599 0 
638 1 0.47 70.00 10.7853 14.7995 0 
639 1 0.49 70.00 2.9352 18.0933 0 
640 1 0.42 70.00 5.3580 8.5096 0 
641 1 0.44 70.00 11.4398 17.9670 0 
642 1 0.51 70.00 22.6996 21.0191 0 
643 1 0.46 70.00 11.7888 13.8475 0 
644 1 0.50 70.00 23.0555 19.2575 0 
645 1 0.48 70.00 1.5944 13.8112 0 
646 1 0.47 70.00 14.4346 1.6702 0 
647 1 0.47 70.00 23.8136 9.2233 0 
648 1 0.46 70.00 9.8095 8.4936 0 
649 1 0.50 70.00 13.0529 10.2433 0 
650 1 0.48 70.00 27.3645 17.0902 0 
651 1 0.42 70.00 2.0586 1.0843 0 
652 1 0.51 70.00 20.5974 14.8463 0 
653 1 0.44 70.00 10.5995 4.6531 0 
654 1 0.42 70.00 20.9900 18.5046 0 
655 1 0.49 70.00 0.7691 16.7226 0 
656 1 0.43 70.00 1.9442 17.7155 0 
657 1 0.45 70.00 27.5546 3.0202 0 
658 1 0.48 70.00 11.9295 1.9693 0 
659 1 0.48 70.00 21.0492 3.4626 0 
660 1 0.47 70.00 12.2447 19.4884 0 
661 1 0.49 70.00 12.4982 0.6014 0 
662 1 0.42 70.00 6.7756 15.3110 0 
663 1 0.53 70.00 12.6576 16.8829 0 
664 1 0.45 70.00 21.8463 9.4143 0 
665 1 0.44 70.00 15.3664 5.5494 0 
666 1 0.49 70.00 14.0484 13.2426 0 
667 1 0.52 70.00 23.7552 17.3069 0 
668 1 0.49 70.00 24.0906 8.0341 0 
669 1 0.48 70.00 25.5686 7.8688 0 
670 1 0.46 70.00 27.5985 2.5207 0 
671 1 0.43 70.00 21.2435 6.4866 0 
672 1 0.48 70.00 23.7597 13.0927 0 
673 1 0.49 70.00 11.8027 11.6129 0 
674 1 0.46 70.00 16.7262 16.0092 0 
675 1 0.52 70.00 7.0412 15.0069 0 
676 1 0.44 70.00 16.6820 21.3223 0 
677 1 0.45 70.00 14.4337 9.4267 0 
678 1 0.42 70.00 21.7799 3.1330 0 
679 1 0.47 70.00 16.2944 0.8091 0 
680 1 0.44 70.00 8.0359 3.1801 0 
681 1 0.46 70.00 8.2047 15.3006 0 
682 1 0.48 70.00 17.4262 11.9825 0 
683 1 0.46 70.00 6.4390 16.9208 0 
684 1 0.45 70.00 9.9022 18.9334 0 
685 1 0.48 70.00 14.2875 4.5041 0 
686 1 0.49 70.00 27.1227 4.0399 0 
687 1 0.50 70.00 23.4511 10.3829 0 
688 1 0.51 70.00 23.3530 5.0964 0 
689 1 0.46 70.00 26.7126 16.7822 0 
690 1 0.52 70.00 22.0931 21.4915 0 
691 1 0.42 70.00 18.1207 2.8351 0 
692 1 0.46 70.00 16.4747 1.2770 0 
693 1 0.49 70.00 18.2899 17.4621 0 
694 1 0.51 70.00 11.0213 2.8018 0 
695 1 0.47 70.00 12.2092 19.2022 0 
696 1 0.46 70.00 6.2820 12.0904 0 
697 1 0.51 70.00 8.7981 2.5469 0 
698 1 0.44 70.00 0.5497 16.2239 0 
699 1 0.45 70.00 1.4636 6.3205 0 
700 1 0.49 70.00 21.9370 20.3606 0 
701 1 0.47 70.00 13.4440 13.4153 0 
702 1 0.48 70.00 4.7731 17.6024 0 
703 1 0.46 70.00 27.0228 7.0548 0 
704 1 0.46 70.00 1.9994 13.5056 0 
705 1 0.46 70.00 7.7828 6.3469 0 
706 1 0.48 70.00 23.4766 13.5643 0 
707 1 0.47 70.00 18.8499 18.9262 0 
708 1 0.47 70.00 6.7385 16.9671 0 
709 1 0.47 70.00 20.0797 20.6925 0 
710 1 0.50 70.00 21.9482 15.7417 0 
711 1 0.49 70.00 27.6147 13.8396 0 
712 1 0.49 70.00 12.8993 11.1537 0 
713 1 0.48 70.00 25.4946 2.4565 0 
714 1 0.47 70.00 14.9716 16.8150 0 
715 1 0.49 70.00 14.6044 4.5373 0 
716 1 0.46 70.00 1.8699 12.2843 0 
717 1 0.43 70.00 15.6740 17.5668 0 
718 1 0.42 70.00 25.9401 9.9804 0 
719 1 0.46 70.00 25.2357 19.6352 0 
720 1 0.48 70.00 2.0467 20.8685 0 
721 1 0.46 70.00 5.7123 16.4592 0 
722 1 0.48 70.00 22.5307 1.4498 0 
723 1 0.45 70.00 26.2445 21.7170 0 
724 1 0.46 70.00 17.7106 15.9673 0 
725 1 0.44 70.00 13.6254 5.5153 0 
726 1 0.44 70.00 8.7468 4.8900 0 
727 1 0.44 70.00 21.0141 14.4555 0 
728 1 0.49 70.00 16.2726 7.6783 0 
729 1 0.47 70.00 22.2040 0.8842 0 
730 1 0.52 70.00 6.8527 3.4168 0 
731 1 0.43 70.00 4.1254 14.7747 0 
732 1 0.42 70.00 15.1206 4.7243 0 
733 1 0.48 70.00 19.5760 1.0087 0 
734 1 0.51 70.00 11.1606 4.5639 0 
735 1 0.49 70.00 11.0728 14.7926 0 
736 1 0.44 70.00 6.7083 9.1778 0 
737 1 0.50 70.00 1.2855 3.2337 0 
738 1 0.42 70.00 27.4018 11.9711 0 
739 1 0.46 70.00 25.0769 2.7674 0 
740 1 0.51 70.00 7.7532 15.7316 0 
741 1 0.45 70.00 1.3608 9.5166 0 
742 1 0.52 70.00 11.6561 7.1362 0 
743 1 0.47 70.00 9.7458 14.5519 0 
744 1 0.48 70.00 5.7111 8.1069 0 
745 1 0.45 70.00 23.9562 7.0883 0 
746 1 0.51 70.00 20.0539 14.7779 0 
747 1 0.46 70.00 0.6261 19.8688 0 
748 1 0.43 70.00 19.2674 14.5962 0 
749 1 0.51 70.00 12.0777 3.8715 0 
750 1 0.44 70.00 24.4183 3.8332 0 
751 1 0.51 70.00 20.9602 2.9741 0 
752 1 0.45 70.00 21.5775 9.9968 0 
753 1 0.47 70.00 17.4255 14.4439 0 
754 1 0.48 70.00 5.6620 9.2174 0 
755 1 0.49 70.00 26.7267 9.0410 0 
756 1 0.45 70.00 10.1692 18.2536 0 
757 1 0.45 70.00 8.9739 6.5141 0 
758 1 0.44 70.00 21.8936 6.9068 0 
759 1 0.45 70.00 25.5885 4.9074 0 
760 1 0.47 70.00 9.9940 3.2602 0 
761 1 0.52 70.00 2.5090 17.6940 0 
762 1 0.52 70.00 18.2832 8.6361 0 
763 1 0.46 70.00 1.5101 1.1076 0 
764 1 0.44 70.00 7.5451 14.0888 0 
765 1 0.50 70.00 1.5982 20.3825 0 
766 1 0.39 70.00 18.7204 13.3453 0 
767 1 0.45 70.00 15.8908 10.4242 0 
768 1 0.52 70.00 14.2828 20.3937 0 
769 1 0.52 70.00 22.1411 21.0577 0 
770 1 0.46 70.00 10.6492 21.4640 0 
771 1 0.46 70.00 4.3371 7.8264 0 
772 1 0.44 70.00 18.0339 5.8819 0 
773 1 0.50 70.00 10.0842 3.5297 0 
774 1 0.47 70.00 2.9837 17.8553 0 
775 1 0.49 70.00 0.7912 17.2975 0 
776 1 0.47 70.00 11.0403 16.0947 0 
777 1 0.43 70.00 26.7349 8.5537 0 
778 1 0.45 70.00 5.4544 14.8348 0 
779 1 0.48 70.00 8.3797 19.3938 0 
780 1 0.45 70.00 24.2634 12.0291 0 
781 1 0.46 70.00 20.0684 16.1832 0 
782 1 0.50 70.00 14.1438 13.9886 0 
783 1 0.46 70.00 1.9731 10.5767 0 
784 1 0.48 70.00 5.5303 21.6771 0 
785 1 0.43 70.00 21.2575 4.8108 0 
786 1 0.49 70.00 24.1968 10.8134 0 
787 1 0.47 70.00 7.6071 20.9749 0 
788 1 0.46 70.00 16.6214 17.2146 0 
789 1 0.45 70.00 14.1395 17.5378 0 
790 1 0.43 70.00 11.5083 6.3809 0 
791 1 0.43 70.00 19.3108 7.7568 0 
792 1 0.44 70.00 17.1453 0.6757 0 
793 1 0.44 70.00 26.4258 17.1716 0 
794 1 0.49 70.00 4.9362 10.9016 0 
795 1 0.47 70.00 12.9225 9.9587 0 
796 1 0.48 70.00 26.3703 10.5901 0 
797 1 0.45 70.00 10.1336 20.9390 0 
798 1 0.48 70.00 19.1823 7.1009 0 
799 1 0.46 70.00 19.9543 21.6508 0 
800 1 0.49 70.00 1.3866 8.4629 0 
801 1 0.44 70.00 7.3928 18.3805 0 
802 1 0.44 70.00 6.0500 21.6412 0 
803 1 0.44 70.00 4.6376 10.2077 0 
804 1 0.42 70.00 26.5354 10.7066 0 
805 1 0.48 70.00 10.8059 2.2333 0 
806 1 0.50 70.00 3.6167 12.7438 0 
807 1 0.45 70.00 1.7017 3.7329 0 
808 1 0.49 70.00 9.9875 8.8745 0 
809 1 0.46 70.00 3.3156 20.5079 0 
810 1 0.48 70.00 23.7750 12.1440 0 
811 1 0.44 70.00 7.4385 16.2222 0 
812 1 0.49 70.00 12.5683 15.6179 0 
813 1 0.43 70.00 18.5623 19.2217 0 
814 1 0.49 70.00 23.9046 17.9384 0 
815 1 0.45 70.00 25.5826 13.0558 0 
816 1 0.50 70.00 19.2241 15.6996 0 
817 1 0.46 70.00 20.5609 16.8313 0 
818 1 0.52 70.00 11.2150 18.7544 0 
819 1 0.46 70.00 22.2505 20.7559 0 
820 1 0.47 70.00 8.8610 8.3910 0 
821 1 0.50 70.00 21.5635 2.4343 0 
822 1 0.45 70.00 15.8147 3.0665 0 
823 1 0.47 70.00 6.9084 14.4228 0 
824 1 0.49 70.00 24.3229 11.3374 0 
825 1 0.46 70.00 12.5542 11.0504 0 
826 1 0.46 70.00 19.4676 10.1669 0 
827 1 0.42 70.00 21.0436 17.0025 0 
828 1 0.45 70.00 1.9431 9.5862 0 
829 1 0.52 70.00 12.6947 1.6892 0 
830 1 0.50 70.00 14.1224 7.5626 0 
831 1 0.47 70.00 8.7920 1.8436 0 
832 1 0.45 70.00 13.8235 3.3596 0 
833 1 0.51 70.00 18.3189 19.5798 0 
834 1 0.45 70.00 2.5026 9.1290 0 
835 1 0.47 70.00 14.4812 13.9531 0 
836 1 0.44 70.00 7.0659 21.3024 0 
837 1 0.48 70.00 7.6770 12.5723 0 
838 1 0.44 70.00 10.1623 4.8229 0 
839 1 0.48 70.00 23.3732 9.1893 0 
840 1 0.48 70.00 20.9834 20.4412 0 
841 1 0.47 70.00 8.4050 10.5422 0 
842 1 0.45 70.00 10.9076 14.4393 0 
843 1 0.45 70.00 6.8671 2.8088 0 
844 1 0.42 70.00 24.7202 9.2330 0 
845 1 0.49 70.00 21.8451 3.3879 0 
846 1 0.47 70.00 5.5895 0.8650 0 
847 1 0.46 70.00 7.5590 9.7028 0 
848 1 0.47 70.00 24.3718 0.9238 0 
849 1 0.43 70.00 13.9946 10.8488 0 
850 1 0.45 70.00 5.5883 6.5979 0 
851 1 0.51 70.00 14.7715 21.7326 0 