# LAMMPS data file for rigid bodies

2464 atoms

2 atom types

0.0 	 28.0 	 xlo xhi 
0.0 	 22.0 	 ylo yhi 
-1.0 	 1.0 	 zlo zhi 

Atoms

1 1 0.53 70.00 16.0502 8.5910 0 
2 1 0.44 70.00 17.7324 11.0309 0 
3 1 0.46 70.00 12.1098 5.7020 0 
4 1 0.47 70.00 20.7633 0.6353 0 
5 1 0.51 70.00 27.4104 20.4746 0 
6 1 0.43 70.00 0.5372 12.4005 0 
7 1 0.44 70.00 22.0217 8.5833 0 
8 1 0.44 70.00 11.8777 20.5597 0 
9 1 0.49 70.00 9.9394 13.0516 0 
10 1 0.41 70.00 27.1660 16.0832 0 
11 1 0.43 70.00 17.4116 5.9247 0 
12 1 0.50 70.00 4.1001 2.9666 0 
13 1 0.47 70.00 27.6704 2.5156 0 
14 1 0.48 70.00 25.0963 13.7596 0 
15 1 0.44 70.00 23.6808 17.6775 0 
16 1 0.50 70.00 7.0828 14.5163 0 
17 1 0.48 70.00 12.5318 11.2416 0 
18 1 0.44 70.00 25.6151 7.1194 0 
19 1 0.47 70.00 24.7470 21.4140 0 
20 1 0.45 70.00 17.5058 12.8026 0 
21 1 0.47 70.00 25.2866 7.7716 0 
22 1 0.45 70.00 22.0044 14.9018 0 
23 1 0.49 70.00 4.4600 19.2136 0 
24 1 0.44 70.00 26.8638 10.6744 0 
25 1 0.46 70.00 19.0895 13.4357 0 
26 1 0.49 70.00 11.7592 9.6206 0 
27 1 0.47 70.00 20.7497 5.7036 0 
28 1 0.47 70.00 20.5692 3.4547 0 
29 1 0.43 70.00 25.5791 9.3000 0 
30 1 0.46 70.00 23.6170 10.4667 0 
31 1 0.49 70.00 10.3154 9.0580 0 
32 1 0.48 70.00 1.2861 18.8444 0 
33 1 0.50 70.00 10.3256 16.6357 0 
34 1 0.47 70.00 20.5282 11.8684 0 
35 1 0.46 70.00 10.1880 20.7703 0 
36 1 0.50 70.00 22.7894 5.7928 0 
37 1 0.51 70.00 1.6929 15.7421 0 
38 1 0.45 70.00 2.5116 3.9241 0 
39 1 0.52 70.00 20.4198 3.1638 0 
40 1 0.45 70.00 8.2664 15.1361 0 
41 1 0.45 70.00 12.4277 14.8199 0 
42 1 0.46 70.00 3.8853 19.8834 0 
43 1 0.50 70.00 20.3821 14.6604 0 
44 1 0.52 70.00 11.9788 13.2349 0 
45 1 0.50 70.00 1.6140 2.3243 0 
46 1 0.46 70.00 12.1795 9.2118 0 
47 1 0.38 70.00 21.4344 19.5885 0 
48 1 0.46 70.00 13.9514 6.3440 0 
49 1 0.46 70.00 20.2071 20.0131 0 
50 1 0.46 70.00 18.8953 12.1163 0 
51 1 0.42 70.00 24.6989 15.2861 0 
52 1 0.44 70.00 8.9971 4.9700 0 
53 1 0.48 70.00 21.4940 3.4912 0 
54 1 0.48 70.00 24.1072 3.9872 0 
55 1 0.46 70.00 7.4861 15.5954 0 
56 1 0.45 70.00 10.3223 15.5433 0 
57 1 0.49 70.00 16.3870 6.4571 0 
58 1 0.49 70.00 22.8912 5.1505 0 
59 1 0.49 70.00 27.1060 1.9578 0 
60 1 0.55 70.00 25.3940 8.9264 0 
61 1 0.52 70.00 22.4984 0.9263 0 
62 1 0.55 70.00 8.9820 2.9462 0 
63 1 0.44 70.00 10.3977 2.7616 0 
64 1 0.46 70.00 25.2348 6.1512 0 
65 1 0.48 70.00 20.0037 11.5997 0 
66 1 0.49 70.00 25.7847 10.7458 0 
67 1 0.45 70.00 26.0500 19.4792 0 
68 1 0.49 70.00 25.4841 9.6816 0 
69 1 0.50 70.00 25.8248 0.7904 0 
70 1 0.46 70.00 0.8716 19.8177 0 
71 1 0.48 70.00 18.4226 0.6418 0 
72 1 0.48 70.00 11.3933 12.0654 0 
73 1 0.47 70.00 24.4475 11.5289 0 
74 1 0.49 70.00 12.7655 14.1660 0 
75 1 0.52 70.00 3.1473 14.2278 0 
76 1 0.46 70.00 23.3515 0.5238 0 
77 1 0.46 70.00 22.2119 7.2105 0 
78 1 0.44 70.00 8.5813 9.2208 0 
79 1 0.52 70.00 24.9037 8.2885 0 
80 1 0.45 70.00 2.5768 13.2964 0 
81 1 0.48 70.00 19.9923 4.5830 0 
82 1 0.48 70.00 15.8518 3.1767 0 
83 1 0.47 70.00 17.2113 7.4942 0 
84 1 0.44 70.00 5.2479 21.2507 0 
85 1 0.43 70.00 13.1302 6.3377 0 
86 1 0.46 70.00 23.6260 15.1171 0 
87 1 0.45 70.00 1.1472 14.1783 0 
88 1 0.48 70.00 17.4532 6.1363 0 
89 1 0.49 70.00 11.2691 7.3468 0 
90 1 0.48 70.00 27.0396 4.1566 0 
91 1 0.46 70.00 15.5963 5.7993 0 
92 1 0.48 70.00 26.9682 14.8589 0 
93 1 0.46 70.00 4.2360 3.6955 0 
94 1 0.46 70.00 25.1049 10.5061 0 
95 1 0.44 70.00 10.0983 16.2059 0 
96 1 0.50 70.00 27.0696 17.4167 0 
97 1 0.45 70.00 15.4601 0.7731 0 
98 1 0.49 70.00 11.7063 2.1435 0 
99 1 0.45 70.00 23.3401 3.2820 0 
100 1 0.47 70.00 17.8316 19.0437 0 
101 1 0.50 70.00 26.6950 10.4302 0 
102 1 0.39 70.00 21.6762 10.1688 0 
103 1 0.51 70.00 14.8570 1.5623 0 
104 1 0.43 70.00 22.4317 3.8654 0 
105 1 0.49 70.00 17.4859 5.0878 0 
106 1 0.49 70.00 5.0550 21.4247 0 
107 1 0.46 70.00 2.8263 14.6439 0 
108 1 0.46 70.00 11.3565 10.7115 0 
109 1 0.45 70.00 7.2397 1.7059 0 
110 1 0.41 70.00 16.6341 10.6968 0 
111 1 0.52 70.00 9.2890 3.9281 0 
112 1 0.45 70.00 10.5528 18.7524 0 
113 1 0.44 70.00 10.3992 21.4315 0 
114 1 0.46 70.00 15.5830 6.4549 0 
115 1 0.45 70.00 15.4144 16.6075 0 
116 1 0.48 70.00 2.1504 2.5239 0 
117 1 0.44 70.00 19.7117 5.8041 0 
118 1 0.48 70.00 21.0794 21.2749 0 
119 1 0.49 70.00 19.2733 21.5088 0 
120 1 0.53 70.00 25.3437 14.7799 0 
121 1 0.48 70.00 5.5848 5.1931 0 
122 1 0.46 70.00 18.4264 12.6095 0 
123 1 0.46 70.00 13.4706 3.0637 0 
124 1 0.46 70.00 9.3214 12.4504 0 
125 1 0.46 70.00 17.1502 13.0319 0 
126 1 0.42 70.00 13.9773 12.5391 0 
127 1 0.48 70.00 27.2532 7.2684 0 
128 1 0.45 70.00 12.9011 18.8885 0 
129 1 0.47 70.00 5.0506 7.7880 0 
130 1 0.46 70.00 20.1574 6.8911 0 
131 1 0.49 70.00 27.4200 8.6694 0 
132 1 0.51 70.00 25.9639 9.0395 0 
133 1 0.46 70.00 6.6836 16.5188 0 
134 1 0.44 70.00 24.3153 21.0596 0 
135 1 0.47 70.00 20.7508 21.6797 0 
136 1 0.54 70.00 27.0961 20.4179 0 
137 1 0.55 70.00 18.7210 6.1993 0 
138 1 0.49 70.00 5.7823 13.3725 0 
139 1 0.48 70.00 17.7249 4.2302 0 
140 1 0.51 70.00 13.7226 15.6399 0 
141 1 0.51 70.00 2.0901 16.8667 0 
142 1 0.48 70.00 13.0624 15.2334 0 
143 1 0.40 70.00 18.3650 12.0305 0 
144 1 0.42 70.00 0.9448 10.2051 0 
145 1 0.47 70.00 18.9595 15.5531 0 
146 1 0.45 70.00 23.7312 11.7543 0 
147 1 0.47 70.00 25.1142 16.9313 0 
148 1 0.43 70.00 7.8076 18.7832 0 
149 1 0.46 70.00 4.9657 3.2101 0 
150 1 0.49 70.00 22.9822 2.8148 0 
151 1 0.49 70.00 14.9940 7.9620 0 
152 1 0.42 70.00 1.8385 12.9658 0 
153 1 0.49 70.00 10.9639 3.2738 0 
154 1 0.47 70.00 22.0622 4.4635 0 
155 1 0.44 70.00 2.4794 2.5239 0 
156 1 0.42 70.00 3.2270 4.1141 0 
157 1 0.49 70.00 6.3230 18.9244 0 
158 1 0.43 70.00 21.4522 11.5735 0 
159 1 0.46 70.00 7.7332 3.8666 0 
160 1 0.45 70.00 23.7055 10.8817 0 
161 1 0.43 70.00 25.8835 17.9034 0 
162 1 0.50 70.00 26.2472 15.1337 0 
163 1 0.47 70.00 24.6179 5.6636 0 
164 1 0.47 70.00 3.0442 14.5380 0 
165 1 0.49 70.00 21.4789 8.3805 0 
166 1 0.51 70.00 9.1855 16.0316 0 
167 1 0.47 70.00 26.1234 10.3287 0 
168 1 0.44 70.00 2.3577 21.3648 0 
169 1 0.49 70.00 11.2667 15.0645 0 
170 1 0.49 70.00 13.5146 4.8245 0 
171 1 0.44 70.00 21.1086 19.8127 0 
172 1 0.50 70.00 17.2352 7.1797 0 
173 1 0.45 70.00 21.1788 15.3081 0 
174 1 0.50 70.00 16.2016 12.9247 0 
175 1 0.46 70.00 27.0937 5.5889 0 
176 1 0.46 70.00 18.8927 19.5017 0 
177 1 0.43 70.00 19.4375 15.2155 0 
178 1 0.45 70.00 0.7894 20.1281 0 
179 1 0.41 70.00 10.0360 21.6641 0 
180 1 0.46 70.00 23.4099 12.1375 0 
181 1 0.50 70.00 8.8499 13.7210 0 
182 1 0.52 70.00 2.7075 21.5341 0 
183 1 0.49 70.00 23.8047 2.6258 0 
184 1 0.51 70.00 3.3814 4.2551 0 
185 1 0.48 70.00 1.6641 16.1495 0 
186 1 0.44 70.00 27.4967 16.9520 0 
187 1 0.54 70.00 1.6082 9.8986 0 
188 1 0.48 70.00 6.5547 8.5826 0 
189 1 0.41 70.00 1.5060 4.2669 0 
190 1 0.46 70.00 10.2733 1.6068 0 
191 1 0.52 70.00 7.2828 3.6964 0 
192 1 0.48 70.00 19.5436 12.0507 0 
193 1 0.48 70.00 11.0673 2.8582 0 
194 1 0.48 70.00 27.6580 5.1511 0 
195 1 0.47 70.00 9.7115 20.9353 0 
196 1 0.49 70.00 15.6773 14.3574 0 
197 1 0.49 70.00 15.9786 5.0018 0 
198 1 0.42 70.00 9.6271 13.4672 0 
199 1 0.49 70.00 13.1210 17.7485 0 
200 1 0.50 70.00 16.8238 10.6028 0 
201 1 0.43 70.00 0.8529 5.9170 0 
202 1 0.45 70.00 8.0896 16.0348 0 
203 1 0.48 70.00 11.1398 1.4632 0 
204 1 0.43 70.00 6.2633 7.0728 0 
205 1 0.51 70.00 20.7834 17.3864 0 
206 1 0.44 70.00 4.7473 5.8356 0 
207 1 0.46 70.00 26.4732 17.1330 0 
208 1 0.51 70.00 4.6850 8.7090 0 
209 1 0.49 70.00 21.3246 14.0759 0 
210 1 0.51 70.00 20.4675 2.2948 0 
211 1 0.48 70.00 2.5772 12.4569 0 
212 1 0.44 70.00 12.1616 8.1114 0 
213 1 0.48 70.00 27.5655 1.1789 0 
214 1 0.46 70.00 15.3555 14.7786 0 
215 1 0.47 70.00 15.2556 19.1870 0 
216 1 0.50 70.00 12.4067 12.6076 0 
217 1 0.45 70.00 16.0918 2.1763 0 
218 1 0.42 70.00 8.6641 5.3451 0 
219 1 0.43 70.00 4.2957 9.9766 0 
220 1 0.46 70.00 7.3086 17.6273 0 
221 1 0.51 70.00 24.1830 17.1614 0 
222 1 0.44 70.00 2.0365 12.7573 0 
223 1 0.46 70.00 18.0337 15.7716 0 
224 1 0.48 70.00 10.8419 11.0468 0 
225 1 0.47 70.00 20.8081 19.0120 0 
226 1 0.43 70.00 24.3891 1.7927 0 
227 1 0.47 70.00 22.9524 9.5769 0 
228 1 0.55 70.00 12.7696 19.7976 0 
229 1 0.42 70.00 3.3557 21.0834 0 
230 1 0.45 70.00 13.2129 18.1086 0 
231 1 0.50 70.00 13.7122 16.3070 0 
232 1 0.48 70.00 17.5503 13.6138 0 
233 1 0.47 70.00 14.6411 1.8123 0 
234 1 0.47 70.00 6.1843 6.2135 0 
235 1 0.48 70.00 10.3275 5.3032 0 
236 1 0.47 70.00 27.6309 14.5362 0 
237 1 0.43 70.00 4.2383 16.3640 0 
238 1 0.50 70.00 8.5018 8.5993 0 
239 1 0.42 70.00 10.2086 10.0315 0 
240 1 0.49 70.00 9.6324 5.0076 0 
241 1 0.47 70.00 19.0685 11.8028 0 
242 1 0.48 70.00 12.3907 21.2460 0 
243 1 0.47 70.00 9.6976 12.7567 0 
244 1 0.47 70.00 4.0238 18.2675 0 
245 1 0.49 70.00 20.2782 17.5060 0 
246 1 0.47 70.00 24.5734 7.4190 0 
247 1 0.49 70.00 18.9308 11.0846 0 
248 1 0.44 70.00 12.4727 2.9606 0 
249 1 0.50 70.00 13.3598 17.2327 0 
250 1 0.45 70.00 9.5662 3.6163 0 
251 1 0.47 70.00 3.0359 16.2830 0 
252 1 0.42 70.00 3.4799 16.0260 0 
253 1 0.47 70.00 8.5227 14.7094 0 
254 1 0.48 70.00 13.0094 4.2913 0 
255 1 0.49 70.00 7.4702 12.4173 0 
256 1 0.49 70.00 14.1980 16.5392 0 
257 1 0.45 70.00 11.4653 7.2882 0 
258 1 0.41 70.00 24.9187 14.7475 0 
259 1 0.45 70.00 14.5794 19.1969 0 
260 1 0.50 70.00 19.1453 10.1359 0 
261 1 0.46 70.00 24.3503 14.4716 0 
262 1 0.48 70.00 12.1306 4.0075 0 
263 1 0.52 70.00 24.9345 11.1747 0 
264 1 0.46 70.00 15.4343 15.9875 0 
265 1 0.45 70.00 22.9307 14.7808 0 
266 1 0.46 70.00 7.4756 12.7215 0 
267 1 0.47 70.00 9.8104 16.7811 0 
268 1 0.45 70.00 10.5352 7.1962 0 
269 1 0.45 70.00 6.0595 4.8057 0 
270 1 0.48 70.00 14.5841 16.7554 0 
271 1 0.48 70.00 1.3430 18.1792 0 
272 1 0.45 70.00 23.1240 16.1411 0 
273 1 0.47 70.00 24.3038 14.2112 0 
274 1 0.50 70.00 10.4356 16.3769 0 
275 1 0.46 70.00 16.7538 21.0918 0 
276 1 0.47 70.00 22.6350 15.8032 0 
277 1 0.53 70.00 14.2412 3.6232 0 
278 1 0.43 70.00 15.0558 5.2000 0 
279 1 0.42 70.00 26.1507 7.7988 0 
280 1 0.53 70.00 19.5075 4.5000 0 
281 1 0.46 70.00 8.8571 13.9420 0 
282 1 0.45 70.00 22.3630 21.0027 0 
283 1 0.50 70.00 22.4405 1.8647 0 
284 1 0.45 70.00 15.6653 3.0068 0 
285 1 0.48 70.00 25.4378 5.5347 0 
286 1 0.51 70.00 7.3295 1.3832 0 
287 1 0.48 70.00 20.0110 11.1883 0 
288 1 0.50 70.00 23.0317 2.2279 0 
289 1 0.48 70.00 1.9015 1.7740 0 
290 1 0.49 70.00 24.5866 10.3701 0 
291 1 0.46 70.00 12.3255 12.7937 0 
292 1 0.46 70.00 10.3638 7.3002 0 
293 1 0.48 70.00 20.5383 12.3985 0 
294 1 0.48 70.00 26.6675 16.1807 0 
295 1 0.49 70.00 6.5391 14.6625 0 
296 1 0.48 70.00 24.7460 3.5888 0 
297 1 0.44 70.00 4.9736 18.8239 0 
298 1 0.47 70.00 12.1026 2.8531 0 
299 1 0.47 70.00 25.4518 10.0253 0 
300 1 0.46 70.00 15.6460 19.5965 0 
301 1 0.48 70.00 25.1160 21.4958 0 
302 1 0.52 70.00 21.3899 5.6645 0 
303 1 0.47 70.00 16.8728 19.7545 0 
304 1 0.43 70.00 24.0424 3.1514 0 
305 1 0.44 70.00 2.3863 21.5922 0 
306 1 0.51 70.00 12.1500 19.5389 0 
307 1 0.45 70.00 17.9409 6.8949 0 
308 1 0.41 70.00 1.2354 0.6361 0 
309 1 0.49 70.00 16.3729 0.6222 0 
310 1 0.44 70.00 3.8753 6.4795 0 
311 1 0.50 70.00 15.1720 8.8182 0 
312 1 0.48 70.00 23.3364 4.1494 0 
313 1 0.43 70.00 20.3060 1.0996 0 
314 1 0.48 70.00 6.9002 15.6779 0 
315 1 0.43 70.00 25.2797 19.7823 0 
316 1 0.50 70.00 25.4621 16.8115 0 
317 1 0.54 70.00 1.1384 6.8818 0 
318 1 0.48 70.00 16.2853 17.2141 0 
319 1 0.49 70.00 16.8070 3.3270 0 
320 1 0.47 70.00 3.5843 5.4119 0 
321 1 0.45 70.00 21.3568 7.8366 0 
322 1 0.48 70.00 8.4646 4.5392 0 
323 1 0.47 70.00 22.4858 6.7144 0 
324 1 0.47 70.00 20.9134 19.8907 0 
325 1 0.41 70.00 5.5189 1.3093 0 
326 1 0.45 70.00 26.4793 21.6185 0 
327 1 0.47 70.00 0.9074 6.7970 0 
328 1 0.50 70.00 7.4386 16.3833 0 
329 1 0.47 70.00 19.0576 17.5040 0 
330 1 0.46 70.00 13.0192 7.3477 0 
331 1 0.47 70.00 24.3420 15.9825 0 
332 1 0.51 70.00 13.2110 13.7388 0 
333 1 0.48 70.00 24.6641 19.0890 0 
334 1 0.48 70.00 25.2662 15.4024 0 
335 1 0.47 70.00 10.8140 15.3331 0 
336 1 0.47 70.00 8.9205 9.1995 0 
337 1 0.48 70.00 19.3337 9.5686 0 
338 1 0.49 70.00 16.7385 18.3609 0 
339 1 0.45 70.00 11.5068 18.0041 0 
340 1 0.51 70.00 9.3750 13.0265 0 
341 1 0.48 70.00 26.2814 19.7999 0 
342 1 0.45 70.00 3.0699 7.4095 0 
343 1 0.46 70.00 4.0765 11.4634 0 
344 1 0.53 70.00 12.1824 13.8122 0 
345 1 0.42 70.00 11.2074 3.3102 0 
346 1 0.48 70.00 4.0004 5.9143 0 
347 1 0.50 70.00 3.8843 8.4971 0 
348 1 0.40 70.00 3.5557 20.1238 0 
349 1 0.50 70.00 16.6771 2.5483 0 
350 1 0.50 70.00 1.2024 6.1941 0 
351 1 0.54 70.00 7.6194 9.0271 0 
352 1 0.44 70.00 3.3834 6.6270 0 
353 1 0.52 70.00 14.2440 6.6629 0 
354 1 0.54 70.00 6.0179 19.6628 0 
355 1 0.45 70.00 22.0192 19.0526 0 
356 1 0.48 70.00 17.7380 5.7921 0 
357 1 0.45 70.00 13.4105 2.3218 0 
358 1 0.47 70.00 14.9474 13.3663 0 
359 1 0.44 70.00 22.6671 18.0641 0 
360 1 0.47 70.00 21.2884 9.3956 0 
361 1 0.44 70.00 13.2609 20.7160 0 
362 1 0.50 70.00 24.4348 6.5806 0 
363 1 0.48 70.00 10.5346 6.7422 0 
364 1 0.44 70.00 13.3158 16.8608 0 
365 1 0.47 70.00 26.6333 1.1014 0 
366 1 0.42 70.00 17.6513 21.2296 0 
367 1 0.45 70.00 11.6487 5.5588 0 
368 1 0.53 70.00 10.7605 3.1772 0 
369 1 0.49 70.00 23.0642 15.0160 0 
370 1 0.47 70.00 12.3858 9.8672 0 
371 1 0.49 70.00 15.6220 7.7641 0 
372 1 0.49 70.00 2.7541 11.4209 0 
373 1 0.44 70.00 27.6945 20.2055 0 
374 1 0.47 70.00 4.6978 7.0126 0 
375 1 0.50 70.00 7.3114 11.8425 0 
376 1 0.43 70.00 25.5127 2.7831 0 
377 1 0.48 70.00 11.1840 0.9815 0 
378 1 0.49 70.00 2.6426 2.3120 0 
379 1 0.46 70.00 22.7885 19.4395 0 
380 1 0.44 70.00 17.3741 13.1525 0 
381 1 0.44 70.00 5.5363 12.5372 0 
382 1 0.46 70.00 12.3665 21.7249 0 
383 1 0.48 70.00 18.2949 15.6378 0 
384 1 0.44 70.00 27.7654 14.0154 0 
385 1 0.47 70.00 22.4405 0.7078 0 
386 1 0.48 70.00 24.7113 19.8138 0 
387 1 0.48 70.00 11.1402 21.7735 0 
388 1 0.43 70.00 22.8963 8.6436 0 
389 1 0.46 70.00 18.4302 10.7698 0 
390 1 0.46 70.00 25.0239 4.1536 0 
391 1 0.42 70.00 19.8203 18.2341 0 
392 1 0.43 70.00 8.6411 13.9325 0 
393 1 0.48 70.00 13.4813 16.7027 0 
394 1 0.45 70.00 21.5571 12.2517 0 
395 1 0.47 70.00 6.6299 20.4621 0 
396 1 0.49 70.00 3.2835 0.9242 0 
397 1 0.47 70.00 19.7630 21.3669 0 
398 1 0.52 70.00 7.5397 2.4130 0 
399 1 0.49 70.00 5.9010 1.3600 0 
400 1 0.46 70.00 10.0438 13.5963 0 
401 1 0.47 70.00 21.5118 11.2061 0 
402 1 0.52 70.00 15.3409 17.0029 0 
403 1 0.41 70.00 21.4877 6.4864 0 
404 1 0.44 70.00 12.5825 7.1494 0 
405 1 0.44 70.00 6.6214 3.8748 0 
406 1 0.45 70.00 15.3641 13.9213 0 
407 1 0.45 70.00 17.6242 3.1050 0 
408 1 0.47 70.00 8.5896 12.7469 0 
409 1 0.41 70.00 23.4088 15.8046 0 
410 1 0.43 70.00 8.1667 17.7916 0 
411 1 0.44 70.00 12.7207 15.0010 0 
412 1 0.48 70.00 15.8686 6.8858 0 
413 1 0.46 70.00 14.9345 7.1759 0 
414 1 0.49 70.00 22.5855 17.6106 0 
415 1 0.50 70.00 3.8506 21.1716 0 
416 1 0.45 70.00 17.5802 7.3722 0 
417 1 0.48 70.00 6.3993 6.7141 0 
418 1 0.49 70.00 15.8553 2.6216 0 
419 1 0.44 70.00 17.2567 14.2969 0 
420 1 0.50 70.00 20.1824 18.1516 0 
421 1 0.50 70.00 1.2096 1.6309 0 
422 1 0.47 70.00 25.4303 21.1147 0 
423 1 0.49 70.00 12.7205 8.7514 0 
424 1 0.41 70.00 3.6595 19.8264 0 
425 1 0.49 70.00 10.5556 19.6282 0 
426 1 0.49 70.00 13.9746 9.0655 0 
427 1 0.39 70.00 1.2597 4.5183 0 
428 1 0.47 70.00 2.5239 1.5134 0 
429 1 0.45 70.00 6.6892 14.4078 0 
430 1 0.47 70.00 1.0456 17.7447 0 
431 1 0.51 70.00 23.0484 8.4377 0 
432 1 0.45 70.00 26.0833 13.1232 0 
433 1 0.46 70.00 23.3370 2.2944 0 
434 1 0.50 70.00 0.5279 6.4471 0 
435 1 0.49 70.00 7.3443 10.7972 0 
436 1 0.47 70.00 12.9514 18.1462 0 
437 1 0.47 70.00 24.2587 15.7621 0 
438 1 0.52 70.00 9.0521 20.5713 0 
439 1 0.53 70.00 12.5575 7.7814 0 
440 1 0.46 70.00 27.5922 19.0602 0 
441 1 0.44 70.00 5.7114 8.2612 0 
442 1 0.48 70.00 8.6940 21.4597 0 
443 1 0.54 70.00 10.0387 14.7718 0 
444 1 0.47 70.00 0.6653 13.0928 0 
445 1 0.46 70.00 22.9962 18.8286 0 
446 1 0.51 70.00 21.0356 18.1630 0 
447 1 0.49 70.00 12.4033 6.4633 0 
448 1 0.45 70.00 18.0344 14.3253 0 
449 1 0.45 70.00 11.5043 6.6868 0 
450 1 0.43 70.00 23.1714 15.9013 0 
451 1 0.50 70.00 22.2615 9.8275 0 
452 1 0.47 70.00 18.8739 4.6914 0 
453 1 0.47 70.00 16.1699 10.8789 0 
454 1 0.45 70.00 18.8792 5.6393 0 
455 1 0.46 70.00 26.0293 15.5307 0 
456 1 0.50 70.00 3.9744 10.8939 0 
457 1 0.46 70.00 15.2465 14.5599 0 
458 1 0.45 70.00 19.7601 14.9226 0 
459 1 0.52 70.00 0.5484 7.4716 0 
460 1 0.49 70.00 12.1503 21.5115 0 
461 1 0.43 70.00 20.4459 21.3744 0 
462 1 0.46 70.00 10.2594 1.8640 0 
463 1 0.42 70.00 6.7424 17.4562 0 
464 1 0.49 70.00 17.4533 14.3446 0 
465 1 0.46 70.00 17.5139 10.3050 0 
466 1 0.49 70.00 5.1309 6.7919 0 
467 1 0.41 70.00 16.5785 2.7909 0 
468 1 0.51 70.00 21.6234 2.5700 0 
469 1 0.48 70.00 14.3315 12.2465 0 
470 1 0.47 70.00 24.2200 15.3269 0 
471 1 0.48 70.00 21.5265 16.0347 0 
472 1 0.50 70.00 26.8031 4.5574 0 
473 1 0.48 70.00 7.4815 13.6859 0 
474 1 0.47 70.00 13.2077 19.0939 0 
475 1 0.44 70.00 17.8628 8.5393 0 
476 1 0.44 70.00 10.2366 14.8213 0 
477 1 0.50 70.00 12.9896 3.1826 0 
478 1 0.43 70.00 12.5888 2.7416 0 
479 1 0.43 70.00 27.7009 7.7063 0 
480 1 0.46 70.00 26.8578 9.2894 0 
481 1 0.49 70.00 17.2952 1.8725 0 
482 1 0.46 70.00 1.0721 2.2083 0 
483 1 0.49 70.00 12.6921 17.0363 0 
484 1 0.47 70.00 5.3378 13.5256 0 
485 1 0.42 70.00 7.4519 9.5624 0 
486 1 0.45 70.00 10.9486 17.4628 0 
487 1 0.51 70.00 10.9156 6.9462 0 
488 1 0.42 70.00 4.2430 12.0540 0 
489 1 0.50 70.00 20.7452 6.7718 0 
490 1 0.48 70.00 25.6872 20.0027 0 
491 1 0.54 70.00 16.5443 3.2596 0 
492 1 0.48 70.00 13.2787 14.0540 0 
493 1 0.48 70.00 14.4418 12.5640 0 
494 1 0.45 70.00 0.8511 2.5834 0 
495 1 0.46 70.00 2.2897 15.9822 0 
496 1 0.45 70.00 25.8349 11.3499 0 
497 1 0.39 70.00 2.4483 4.1557 0 
498 1 0.44 70.00 1.6401 8.6208 0 
499 1 0.45 70.00 16.0169 18.0649 0 
500 1 0.45 70.00 6.6641 15.4322 0 
501 1 0.45 70.00 12.6829 5.7498 0 
502 1 0.42 70.00 3.1623 19.9751 0 
503 1 0.50 70.00 8.3988 5.6177 0 
504 1 0.48 70.00 25.5194 21.3699 0 
505 1 0.49 70.00 8.2911 4.7858 0 
506 1 0.47 70.00 2.1043 8.1537 0 
507 1 0.43 70.00 2.2917 11.5960 0 
508 1 0.45 70.00 16.7652 11.3175 0 
509 1 0.42 70.00 10.6737 9.6970 0 
510 1 0.53 70.00 2.7643 16.2203 0 
511 1 0.49 70.00 1.8934 10.9851 0 
512 1 0.47 70.00 25.3121 4.3181 0 
513 1 0.45 70.00 11.5317 21.5748 0 
514 1 0.47 70.00 19.1087 0.9148 0 
515 1 0.45 70.00 16.2687 4.8739 0 
516 1 0.42 70.00 20.5272 10.1511 0 
517 1 0.51 70.00 4.8513 8.3691 0 
518 1 0.46 70.00 27.4655 8.8714 0 
519 1 0.47 70.00 19.2807 15.4500 0 
520 1 0.47 70.00 9.3347 1.8329 0 
521 1 0.48 70.00 25.7869 12.1205 0 
522 1 0.44 70.00 8.4073 8.9423 0 
523 1 0.46 70.00 6.6143 13.9628 0 
524 1 0.44 70.00 7.5069 18.4626 0 
525 1 0.46 70.00 16.4138 9.1681 0 
526 1 0.51 70.00 12.2356 18.0464 0 
527 1 0.45 70.00 9.3258 18.5323 0 
528 1 0.47 70.00 7.7962 11.5355 0 
529 1 0.44 70.00 11.2309 14.5890 0 
530 1 0.42 70.00 19.4833 19.6666 0 
531 1 0.47 70.00 26.5571 16.9153 0 
532 1 0.51 70.00 1.9483 3.1941 0 
533 1 0.48 70.00 27.7714 21.5652 0 
534 1 0.49 70.00 0.9415 3.8097 0 
535 1 0.46 70.00 26.6156 15.6514 0 
536 1 0.51 70.00 15.5881 11.3353 0 
537 1 0.41 70.00 22.1953 19.2610 0 
538 1 0.44 70.00 3.5117 8.3285 0 
539 1 0.50 70.00 25.9165 16.8166 0 
540 1 0.49 70.00 8.0993 9.1620 0 
541 1 0.45 70.00 5.1408 4.6302 0 
542 1 0.48 70.00 5.7355 1.6202 0 
543 1 0.48 70.00 27.2629 11.9591 0 
544 1 0.47 70.00 16.4562 10.1383 0 
545 1 0.43 70.00 22.9821 17.5696 0 
546 1 0.48 70.00 16.1795 21.3982 0 
547 1 0.48 70.00 8.3344 9.4131 0 
548 1 0.36 70.00 22.7021 6.9871 0 
549 1 0.50 70.00 4.5259 1.9301 0 
550 1 0.43 70.00 22.0365 20.2736 0 
551 1 0.45 70.00 5.8750 13.1747 0 
552 1 0.48 70.00 6.4241 11.5708 0 
553 1 0.49 70.00 20.6158 19.8828 0 
554 1 0.46 70.00 5.0494 2.3290 0 
555 1 0.47 70.00 2.4173 9.4194 0 
556 1 0.51 70.00 14.4615 20.9734 0 
557 1 0.49 70.00 1.3360 20.4286 0 
558 1 0.43 70.00 3.3733 10.0745 0 
559 1 0.47 70.00 24.2430 8.8583 0 
560 1 0.49 70.00 17.8546 16.8488 0 
561 1 0.50 70.00 13.3214 1.4877 0 
562 1 0.49 70.00 15.9664 13.8953 0 
563 1 0.48 70.00 15.5075 4.2027 0 
564 1 0.43 70.00 9.8614 18.2078 0 
565 1 0.44 70.00 5.3668 18.0846 0 
566 1 0.48 70.00 6.9697 17.4832 0 
567 1 0.45 70.00 15.1469 8.6065 0 
568 1 0.48 70.00 26.5646 2.3377 0 
569 1 0.46 70.00 26.4314 2.5928 0 
570 1 0.47 70.00 17.9703 3.1997 0 
571 1 0.48 70.00 5.3794 21.7072 0 
572 1 0.38 70.00 10.9147 3.6717 0 
573 1 0.45 70.00 2.9950 15.5735 0 
574 1 0.52 70.00 21.0346 20.9091 0 
575 1 0.49 70.00 25.0981 19.6016 0 
576 1 0.45 70.00 10.5947 21.7756 0 
577 1 0.53 70.00 4.5538 3.2095 0 
578 1 0.41 70.00 13.5038 16.1591 0 
579 1 0.47 70.00 27.3015 1.0435 0 
580 1 0.43 70.00 5.0325 11.1903 0 
581 1 0.44 70.00 3.1792 6.6286 0 
582 1 0.48 70.00 0.5930 21.7943 0 
583 1 0.42 70.00 26.4558 14.1353 0 
584 1 0.44 70.00 8.2116 1.7279 0 
585 1 0.47 70.00 14.9191 2.3059 0 
586 1 0.51 70.00 23.0409 12.0976 0 
587 1 0.50 70.00 25.9985 10.5714 0 
588 1 0.52 70.00 26.8424 3.1882 0 
589 1 0.39 70.00 0.9523 6.4895 0 
590 1 0.49 70.00 24.8541 0.7319 0 
591 1 0.44 70.00 0.5138 19.7048 0 
592 1 0.46 70.00 12.4402 8.4834 0 
593 1 0.48 70.00 23.2414 19.5689 0 
594 1 0.45 70.00 14.5768 7.5438 0 
595 1 0.51 70.00 12.9081 9.4002 0 
596 1 0.50 70.00 20.8761 5.5133 0 
597 1 0.50 70.00 19.7592 4.1713 0 
598 1 0.44 70.00 23.4195 9.5866 0 
599 1 0.51 70.00 25.5289 7.6168 0 
600 1 0.47 70.00 6.1954 12.1587 0 
601 1 0.51 70.00 19.6713 14.7247 0 
602 1 0.46 70.00 13.1524 3.5746 0 
603 1 0.48 70.00 13.1121 4.6173 0 
604 1 0.49 70.00 24.6918 3.0498 0 
605 1 0.51 70.00 23.7639 7.5992 0 
606 1 0.44 70.00 6.0551 8.7629 0 
607 1 0.45 70.00 1.9201 20.2509 0 
608 1 0.46 70.00 25.9448 5.0151 0 
609 1 0.46 70.00 16.4739 18.3593 0 
610 1 0.43 70.00 11.1279 10.6832 0 
611 1 0.55 70.00 1.2890 17.9125 0 
612 1 0.48 70.00 3.6705 7.2583 0 
613 1 0.39 70.00 8.8945 16.3824 0 
614 1 0.47 70.00 21.7626 19.4967 0 
615 1 0.50 70.00 10.6579 11.4770 0 
616 1 0.50 70.00 0.7161 1.6449 0 
617 1 0.45 70.00 23.1319 6.9297 0 
618 1 0.45 70.00 18.8665 11.4105 0 
619 1 0.47 70.00 7.2271 17.0165 0 
620 1 0.45 70.00 2.9677 10.5004 0 
621 1 0.46 70.00 8.6377 4.0719 0 
622 1 0.50 70.00 6.8723 18.0625 0 
623 1 0.47 70.00 11.8380 7.8706 0 
624 1 0.44 70.00 23.9244 5.0239 0 
625 1 0.50 70.00 24.0951 20.8204 0 
626 1 0.51 70.00 25.4939 11.6917 0 
627 1 0.45 70.00 7.7650 5.4478 0 
628 1 0.48 70.00 15.0681 12.5399 0 
629 1 0.50 70.00 8.2037 4.0031 0 
630 1 0.47 70.00 25.5367 18.2818 0 
631 1 0.47 70.00 9.3155 2.8847 0 
632 1 0.45 70.00 10.3589 15.8347 0 
633 1 0.47 70.00 1.9216 2.1349 0 
634 1 0.47 70.00 19.8625 8.2744 0 
635 1 0.51 70.00 13.4201 12.8461 0 
636 1 0.46 70.00 16.1341 20.4178 0 
637 1 0.45 70.00 14.2340 18.3319 0 
638 1 0.47 70.00 25.0067 21.0379 0 
639 1 0.48 70.00 14.2036 20.9712 0 
640 1 0.47 70.00 22.0380 6.4704 0 
641 1 0.51 70.00 11.9877 6.1970 0 
642 1 0.47 70.00 24.3118 13.1844 0 
643 1 0.45 70.00 15.9958 3.5852 0 
644 1 0.47 70.00 2.2204 15.7069 0 
645 1 0.50 70.00 16.5111 6.9997 0 
646 1 0.48 70.00 14.8294 19.7395 0 
647 1 0.44 70.00 5.7769 19.7723 0 
648 1 0.46 70.00 3.6157 15.4889 0 
649 1 0.45 70.00 18.6542 6.7420 0 
650 1 0.45 70.00 11.8552 7.1083 0 
651 1 0.50 70.00 26.1361 2.4666 0 
652 1 0.44 70.00 10.5910 0.9767 0 
653 1 0.47 70.00 1.6384 11.8188 0 
654 1 0.47 70.00 2.0024 14.8581 0 
655 1 0.50 70.00 20.4522 6.1978 0 
656 1 0.47 70.00 4.2676 0.5821 0 
657 1 0.44 70.00 3.3054 2.8468 0 
658 1 0.49 70.00 8.6560 18.7891 0 
659 1 0.53 70.00 10.1915 18.5861 0 
660 1 0.48 70.00 18.1476 13.0921 0 
661 1 0.46 70.00 8.9615 11.6237 0 
662 1 0.48 70.00 10.5839 8.1961 0 
663 1 0.53 70.00 16.3243 11.2609 0 
664 1 0.45 70.00 27.3531 5.7772 0 
665 1 0.47 70.00 22.2482 14.5750 0 
666 1 0.45 70.00 15.4384 1.7794 0 
667 1 0.49 70.00 19.9460 15.6845 0 
668 1 0.48 70.00 2.5678 2.9312 0 
669 1 0.50 70.00 4.5790 7.1929 0 
670 1 0.47 70.00 18.5647 11.0512 0 
671 1 0.49 70.00 27.5302 17.8037 0 
672 1 0.47 70.00 22.5490 3.2540 0 
673 1 0.47 70.00 19.3018 4.3291 0 
674 1 0.41 70.00 15.1308 17.3322 0 
675 1 0.44 70.00 11.7189 12.5904 0 
676 1 0.41 70.00 17.2258 3.1663 0 
677 1 0.46 70.00 5.0318 19.5316 0 
678 1 0.45 70.00 0.9254 17.2606 0 
679 1 0.47 70.00 24.1132 2.4405 0 
680 1 0.48 70.00 8.2617 19.4179 0 
681 1 0.48 70.00 15.7339 8.4780 0 
682 1 0.49 70.00 10.0137 13.8948 0 
683 1 0.40 70.00 22.3596 21.7679 0 
684 1 0.44 70.00 27.6838 21.2132 0 
685 1 0.49 70.00 27.6275 9.0156 0 
686 1 0.46 70.00 18.1241 17.2269 0 
687 1 0.47 70.00 11.0623 17.2024 0 
688 1 0.45 70.00 14.2716 5.2477 0 
689 1 0.47 70.00 17.7661 19.7852 0 
690 1 0.45 70.00 3.4668 4.6516 0 
691 1 0.43 70.00 20.2647 19.2978 0 
692 1 0.44 70.00 0.5658 19.9475 0 
693 1 0.49 70.00 16.6174 14.1739 0 
694 1 0.48 70.00 25.9418 14.3821 0 
695 1 0.50 70.00 18.5426 19.2810 0 
696 1 0.49 70.00 26.8831 14.2533 0 
697 1 0.50 70.00 25.4495 2.9742 0 
698 1 0.54 70.00 15.4483 8.7552 0 
699 1 0.42 70.00 21.5938 4.5228 0 
700 1 0.54 70.00 15.1809 7.2263 0 
701 1 0.47 70.00 21.8943 18.2594 0 
702 1 0.49 70.00 1.7529 14.0601 0 
703 1 0.44 70.00 11.3994 9.8249 0 
704 1 0.40 70.00 23.8081 8.4062 0 
705 1 0.45 70.00 7.8113 4.4322 0 
706 1 0.44 70.00 1.0759 20.4401 0 
707 1 0.49 70.00 24.7701 12.0868 0 
708 1 0.45 70.00 14.5699 12.7347 0 
709 1 0.48 70.00 8.8146 19.4925 0 
710 1 0.47 70.00 13.2805 7.3202 0 
711 1 0.48 70.00 22.7666 4.7247 0 
712 1 0.43 70.00 20.0921 2.8246 0 
713 1 0.48 70.00 20.6841 9.3488 0 
714 1 0.46 70.00 6.7733 19.0828 0 
715 1 0.46 70.00 25.8580 11.7997 0 
716 1 0.44 70.00 7.0430 7.6285 0 
717 1 0.45 70.00 8.7808 5.1453 0 
718 1 0.46 70.00 20.1752 15.5900 0 
719 1 0.47 70.00 13.6560 18.1646 0 
720 1 0.50 70.00 24.8388 6.4511 0 
721 1 0.48 70.00 15.7403 17.7255 0 
722 1 0.46 70.00 14.0170 11.7600 0 
723 1 0.47 70.00 27.6056 6.0581 0 
724 1 0.49 70.00 25.1765 8.7373 0 
725 1 0.47 70.00 19.4651 16.3558 0 
726 1 0.46 70.00 23.5945 13.5417 0 
727 1 0.45 70.00 8.9169 3.8527 0 
728 1 0.53 70.00 18.7632 4.0585 0 
729 1 0.42 70.00 19.4769 1.1360 0 
730 1 0.43 70.00 12.4466 18.2926 0 
731 1 0.48 70.00 5.3233 1.7077 0 
732 1 0.45 70.00 6.1186 11.0978 0 
733 1 0.47 70.00 13.9983 18.0346 0 
734 1 0.47 70.00 13.9059 5.8206 0 
735 1 0.51 70.00 23.3140 3.0830 0 
736 1 0.44 70.00 14.2452 18.0770 0 
737 1 0.49 70.00 1.0229 20.6481 0 
738 1 0.43 70.00 24.3672 1.1906 0 
739 1 0.49 70.00 25.7485 16.2836 0 
740 1 0.45 70.00 5.9600 3.5770 0 
741 1 0.45 70.00 8.1086 9.6025 0 
742 1 0.41 70.00 2.4884 14.8742 0 
743 1 0.45 70.00 16.4215 7.8946 0 
744 1 0.48 70.00 18.8478 16.3694 0 
745 1 0.45 70.00 17.9516 1.6543 0 
746 1 0.43 70.00 15.3741 17.2915 0 
747 1 0.47 70.00 19.2286 4.7733 0 
748 1 0.46 70.00 27.7740 3.0042 0 
749 1 0.49 70.00 10.1908 6.3026 0 
750 1 0.49 70.00 23.3907 20.3545 0 
751 1 0.53 70.00 17.1879 13.9401 0 
752 1 0.54 70.00 2.5267 6.6335 0 
753 1 0.52 70.00 25.5382 12.1876 0 
754 1 0.40 70.00 20.0432 7.7760 0 
755 1 0.48 70.00 2.4989 8.3920 0 
756 1 0.46 70.00 12.9527 0.6994 0 
757 1 0.48 70.00 8.1369 13.8211 0 
758 1 0.49 70.00 1.8233 10.3233 0 
759 1 0.50 70.00 2.4814 1.2156 0 
760 1 0.44 70.00 15.1679 10.4187 0 
761 1 0.44 70.00 15.6338 7.1000 0 
762 1 0.43 70.00 9.0134 18.2768 0 
763 1 0.46 70.00 22.6405 9.8119 0 
764 1 0.47 70.00 16.9176 2.5250 0 
765 1 0.49 70.00 26.6562 7.5093 0 
766 1 0.48 70.00 27.5101 16.5062 0 
767 1 0.44 70.00 10.9850 16.9840 0 
768 1 0.49 70.00 27.0989 8.9507 0 
769 1 0.46 70.00 8.5517 7.9661 0 
770 1 0.49 70.00 3.2638 8.4162 0 
771 1 0.50 70.00 15.8897 18.5343 0 
772 1 0.51 70.00 11.1120 11.8914 0 
773 1 0.47 70.00 2.6373 9.1901 0 
774 1 0.48 70.00 24.5763 1.1889 0 
775 1 0.50 70.00 23.6793 5.4439 0 
776 1 0.45 70.00 8.2809 21.6160 0 
777 1 0.45 70.00 16.1173 15.0737 0 
778 1 0.48 70.00 2.9360 17.9843 0 
779 1 0.45 70.00 6.9913 8.4444 0 
780 1 0.47 70.00 23.4693 13.0281 0 
781 1 0.46 70.00 6.6945 18.8707 0 
782 1 0.43 70.00 22.6616 12.0558 0 
783 1 0.48 70.00 11.5283 10.5181 0 
784 1 0.47 70.00 4.3420 11.8015 0 
785 1 0.51 70.00 0.6303 21.1888 0 
786 1 0.52 70.00 27.1303 8.1198 0 
787 1 0.44 70.00 6.6931 20.2544 0 
788 1 0.45 70.00 17.5830 11.7086 0 
789 1 0.48 70.00 13.5225 21.3432 0 
790 1 0.46 70.00 1.7890 21.7507 0 
791 1 0.49 70.00 8.6784 7.7300 0 
792 1 0.47 70.00 11.7254 18.2323 0 
793 1 0.48 70.00 18.7354 15.6459 0 
794 1 0.45 70.00 25.1089 18.1419 0 
795 1 0.44 70.00 8.9555 2.2347 0 
796 1 0.44 70.00 10.5178 13.8620 0 
797 1 0.47 70.00 16.5719 3.6326 0 
798 1 0.46 70.00 25.1007 3.8464 0 
799 1 0.46 70.00 15.9093 11.5814 0 
800 1 0.43 70.00 15.8745 12.4640 0 
801 1 0.53 70.00 11.7107 3.7997 0 
802 1 0.45 70.00 3.7621 5.1338 0 
803 1 0.42 70.00 18.8550 2.8052 0 
804 1 0.48 70.00 13.3855 20.2824 0 
805 1 0.47 70.00 15.8589 16.8647 0 
806 1 0.41 70.00 3.0207 17.4869 0 
807 1 0.50 70.00 23.6174 17.0754 0 
808 1 0.51 70.00 12.6015 20.7079 0 
809 1 0.47 70.00 27.5593 13.9615 0 
810 1 0.44 70.00 2.9856 1.4850 0 
811 1 0.50 70.00 14.9380 11.6295 0 
812 1 0.51 70.00 18.0100 10.5071 0 
813 1 0.43 70.00 26.9630 8.2900 0 
814 1 0.47 70.00 0.9201 13.3740 0 
815 1 0.49 70.00 26.0829 15.7333 0 
816 1 0.45 70.00 25.2897 5.2408 0 
817 1 0.48 70.00 9.1568 13.9150 0 
818 1 0.46 70.00 14.1613 6.0021 0 
819 1 0.51 70.00 11.5555 12.3039 0 
820 1 0.50 70.00 2.1005 13.3875 0 
821 1 0.45 70.00 19.2584 14.6640 0 
822 1 0.47 70.00 7.4870 18.7281 0 
823 1 0.49 70.00 12.3765 2.4013 0 
824 1 0.46 70.00 2.5522 18.8425 0 
825 1 0.54 70.00 1.6606 3.6026 0 
826 1 0.46 70.00 17.4634 6.9081 0 
827 1 0.48 70.00 5.9366 14.0016 0 
828 1 0.46 70.00 18.7914 3.6409 0 
829 1 0.48 70.00 2.8036 13.4483 0 
830 1 0.47 70.00 14.8746 4.0252 0 
831 1 0.49 70.00 19.4026 17.2762 0 
832 1 0.45 70.00 18.4004 4.7771 0 
833 1 0.49 70.00 22.0455 12.1932 0 
834 1 0.51 70.00 24.1977 16.1966 0 
835 1 0.46 70.00 22.7326 1.3100 0 
836 1 0.45 70.00 10.7877 18.1527 0 
837 1 0.48 70.00 26.2500 11.0906 0 
838 1 0.44 70.00 15.1667 15.3887 0 
839 1 0.48 70.00 5.0507 17.8061 0 
840 1 0.51 70.00 26.2703 4.2226 0 
841 1 0.50 70.00 18.6048 13.7941 0 
842 1 0.50 70.00 10.9436 12.8857 0 
843 1 0.49 70.00 14.9937 2.0993 0 
844 1 0.47 70.00 5.5747 4.2667 0 
845 1 0.47 70.00 25.7407 18.2471 0 
846 1 0.46 70.00 21.7748 11.8101 0 
847 1 0.47 70.00 22.8943 6.8897 0 
848 1 0.48 70.00 4.5665 15.2696 0 
849 1 0.46 70.00 12.5956 5.4039 0 
850 1 0.47 70.00 11.7603 3.5601 0 