# LAMMPS data file for rigid bodies

4928 atoms

2 atom types

0.0 	 28.0 	 xlo xhi 
0.0 	 22.0 	 ylo yhi 
-1.0 	 1.0 	 zlo zhi 

Atoms

1 1 0.49 70.00 17.4609 14.9951 0 
2 1 0.46 70.00 8.8801 3.2993 0 
3 1 0.45 70.00 19.8150 18.2716 0 
4 1 0.44 70.00 7.7176 2.5936 0 
5 1 0.44 70.00 4.4649 14.2972 0 
6 1 0.49 70.00 11.0314 14.2704 0 
7 1 0.47 70.00 6.9065 5.2666 0 
8 1 0.49 70.00 12.5961 5.9048 0 
9 1 0.39 70.00 13.5912 2.4503 0 
10 1 0.47 70.00 16.5471 18.2253 0 
11 1 0.53 70.00 5.5069 11.5173 0 
12 1 0.48 70.00 3.7012 11.4615 0 
13 1 0.47 70.00 21.0534 2.3616 0 
14 1 0.44 70.00 20.0067 2.2263 0 
15 1 0.49 70.00 11.0559 15.4811 0 
16 1 0.42 70.00 14.6906 7.7647 0 
17 1 0.50 70.00 3.6106 2.6003 0 
18 1 0.45 70.00 1.2556 21.5301 0 
19 1 0.47 70.00 18.0542 4.8639 0 
20 1 0.47 70.00 12.3174 16.0815 0 
21 1 0.50 70.00 4.4708 20.5121 0 
22 1 0.47 70.00 24.1970 9.4083 0 
23 1 0.52 70.00 23.6455 1.3883 0 
24 1 0.47 70.00 5.3624 13.0008 0 
25 1 0.45 70.00 7.9354 9.7038 0 
26 1 0.49 70.00 3.2434 7.8497 0 
27 1 0.41 70.00 5.1512 5.8074 0 
28 1 0.49 70.00 11.4953 6.8592 0 
29 1 0.49 70.00 14.6230 14.8783 0 
30 1 0.48 70.00 25.0441 13.3346 0 
31 1 0.50 70.00 1.9695 10.9165 0 
32 1 0.46 70.00 15.7308 10.9828 0 
33 1 0.45 70.00 12.5531 10.5314 0 
34 1 0.50 70.00 25.5367 11.8489 0 
35 1 0.46 70.00 22.9618 9.0013 0 
36 1 0.48 70.00 10.3394 6.2897 0 
37 1 0.44 70.00 18.5304 5.0282 0 
38 1 0.49 70.00 22.3762 11.9894 0 
39 1 0.43 70.00 4.1261 6.1514 0 
40 1 0.41 70.00 3.7966 7.6941 0 
41 1 0.41 70.00 15.5834 12.6137 0 
42 1 0.46 70.00 22.2606 12.4615 0 
43 1 0.45 70.00 9.5344 11.3996 0 
44 1 0.43 70.00 22.5381 3.3245 0 
45 1 0.52 70.00 2.3010 14.1548 0 
46 1 0.44 70.00 13.6245 11.3868 0 
47 1 0.48 70.00 16.1603 21.6711 0 
48 1 0.45 70.00 5.8104 7.4332 0 
49 1 0.49 70.00 16.6985 10.4659 0 
50 1 0.50 70.00 19.7207 4.5824 0 
51 1 0.49 70.00 4.5423 15.8663 0 
52 1 0.48 70.00 18.6802 3.4730 0 
53 1 0.47 70.00 22.6973 7.8821 0 
54 1 0.53 70.00 17.2519 5.8754 0 
55 1 0.46 70.00 25.0765 4.5472 0 
56 1 0.51 70.00 15.7602 18.8509 0 
57 1 0.53 70.00 11.0783 19.1558 0 
58 1 0.42 70.00 4.6918 15.5410 0 
59 1 0.47 70.00 4.6139 2.2484 0 
60 1 0.46 70.00 22.9637 13.4490 0 
61 1 0.43 70.00 15.6068 20.5344 0 
62 1 0.44 70.00 15.0141 4.4649 0 
63 1 0.45 70.00 27.4573 0.9843 0 
64 1 0.45 70.00 11.4981 1.5576 0 
65 1 0.48 70.00 5.4779 6.5419 0 
66 1 0.49 70.00 7.9965 12.8840 0 
67 1 0.45 70.00 22.6600 17.6658 0 
68 1 0.50 70.00 2.7841 21.4701 0 
69 1 0.45 70.00 7.6382 1.7658 0 
70 1 0.46 70.00 19.4431 15.5953 0 
71 1 0.49 70.00 5.2582 15.6967 0 
72 1 0.48 70.00 10.4056 8.5661 0 
73 1 0.41 70.00 18.6561 3.8434 0 
74 1 0.44 70.00 17.2017 18.1933 0 
75 1 0.45 70.00 14.1514 1.7328 0 
76 1 0.47 70.00 24.8659 4.5848 0 
77 1 0.50 70.00 14.2612 11.7354 0 
78 1 0.52 70.00 14.6011 18.7347 0 
79 1 0.49 70.00 12.7909 5.4088 0 
80 1 0.47 70.00 24.8753 10.7660 0 
81 1 0.49 70.00 26.8788 2.1389 0 
82 1 0.47 70.00 3.1780 18.2962 0 
83 1 0.46 70.00 21.0279 17.4754 0 
84 1 0.49 70.00 12.8997 20.6387 0 
85 1 0.52 70.00 24.8275 12.7350 0 
86 1 0.44 70.00 12.0117 16.8287 0 
87 1 0.48 70.00 8.5962 21.6649 0 
88 1 0.44 70.00 23.9583 16.5854 0 
89 1 0.48 70.00 22.4162 10.4497 0 
90 1 0.50 70.00 15.8282 19.2848 0 
91 1 0.50 70.00 19.7758 6.5959 0 
92 1 0.53 70.00 25.2738 21.2413 0 
93 1 0.44 70.00 22.2672 20.3315 0 
94 1 0.44 70.00 16.2077 17.9764 0 
95 1 0.44 70.00 5.0614 13.1749 0 
96 1 0.49 70.00 26.6444 20.0882 0 
97 1 0.48 70.00 3.2136 20.0813 0 
98 1 0.43 70.00 25.6201 10.7051 0 
99 1 0.46 70.00 14.2352 8.4524 0 
100 1 0.46 70.00 9.5014 4.0937 0 
101 1 0.49 70.00 1.5259 12.9267 0 
102 1 0.47 70.00 7.1862 19.6841 0 
103 1 0.45 70.00 21.9064 3.6860 0 
104 1 0.41 70.00 9.6272 4.2902 0 
105 1 0.46 70.00 13.0217 6.3072 0 
106 1 0.48 70.00 22.1491 17.1328 0 
107 1 0.47 70.00 8.9169 1.5139 0 
108 1 0.47 70.00 13.4053 21.4214 0 
109 1 0.50 70.00 14.6219 0.5325 0 
110 1 0.51 70.00 11.3290 2.4791 0 
111 1 0.45 70.00 4.7095 19.5422 0 
112 1 0.45 70.00 3.8002 20.9030 0 
113 1 0.48 70.00 6.1490 12.4253 0 
114 1 0.52 70.00 12.9882 20.3720 0 
115 1 0.50 70.00 8.4012 14.7859 0 
116 1 0.52 70.00 2.9479 12.0666 0 
117 1 0.43 70.00 14.8335 1.6672 0 
118 1 0.46 70.00 2.9811 14.9417 0 
119 1 0.48 70.00 12.6878 12.1319 0 
120 1 0.49 70.00 25.1184 11.3470 0 
121 1 0.45 70.00 17.3251 9.9494 0 
122 1 0.42 70.00 13.1896 17.7621 0 
123 1 0.52 70.00 17.6562 10.1862 0 
124 1 0.49 70.00 4.4429 8.7709 0 
125 1 0.48 70.00 6.4635 14.1070 0 
126 1 0.45 70.00 14.2041 9.1196 0 
127 1 0.53 70.00 9.7406 0.5539 0 
128 1 0.47 70.00 4.8053 13.1598 0 
129 1 0.49 70.00 1.6604 5.1402 0 
130 1 0.44 70.00 26.3837 13.4247 0 
131 1 0.47 70.00 27.7221 8.7486 0 
132 1 0.48 70.00 3.8098 0.9815 0 
133 1 0.45 70.00 1.3723 19.4577 0 
134 1 0.50 70.00 24.2897 15.1446 0 
135 1 0.47 70.00 23.1595 19.6217 0 
136 1 0.46 70.00 2.2969 10.9149 0 
137 1 0.45 70.00 24.5298 1.8313 0 
138 1 0.53 70.00 25.6265 19.5096 0 
139 1 0.50 70.00 7.9206 4.4697 0 
140 1 0.44 70.00 7.9679 18.4845 0 
141 1 0.49 70.00 22.4755 14.4203 0 
142 1 0.47 70.00 7.1769 17.3922 0 
143 1 0.47 70.00 14.0420 18.0491 0 
144 1 0.48 70.00 4.9273 13.8414 0 
145 1 0.45 70.00 18.5231 20.5986 0 
146 1 0.47 70.00 10.7309 14.9480 0 
147 1 0.45 70.00 24.6097 6.4960 0 
148 1 0.49 70.00 18.1070 19.0830 0 
149 1 0.49 70.00 7.7574 12.7245 0 
150 1 0.50 70.00 21.6183 7.1474 0 
151 1 0.44 70.00 27.7967 12.9666 0 
152 1 0.46 70.00 24.9797 7.0711 0 
153 1 0.46 70.00 9.1866 1.1260 0 
154 1 0.43 70.00 13.3691 2.1147 0 
155 1 0.47 70.00 14.8587 2.9157 0 
156 1 0.44 70.00 16.9581 14.0017 0 
157 1 0.51 70.00 2.4192 14.4723 0 
158 1 0.50 70.00 17.0248 15.9866 0 
159 1 0.48 70.00 17.0827 15.7348 0 
160 1 0.51 70.00 27.3611 19.3068 0 
161 1 0.52 70.00 27.2947 1.6577 0 
162 1 0.54 70.00 21.1295 18.8786 0 
163 1 0.45 70.00 18.8784 13.1617 0 
164 1 0.48 70.00 20.0320 14.2858 0 
165 1 0.48 70.00 25.2058 14.4603 0 
166 1 0.49 70.00 13.4654 11.5418 0 
167 1 0.51 70.00 17.0283 21.6342 0 
168 1 0.48 70.00 10.4992 20.9881 0 
169 1 0.53 70.00 2.0006 21.6205 0 
170 1 0.43 70.00 5.8594 12.8770 0 
171 1 0.53 70.00 21.2159 10.2761 0 
172 1 0.48 70.00 7.1608 20.2976 0 
173 1 0.48 70.00 25.9493 4.2363 0 
174 1 0.47 70.00 25.4723 19.9994 0 
175 1 0.48 70.00 24.2195 5.8180 0 
176 1 0.47 70.00 12.7914 8.9339 0 
177 1 0.42 70.00 1.6227 10.1223 0 
178 1 0.45 70.00 19.7225 7.4642 0 
179 1 0.45 70.00 27.3497 3.6632 0 
180 1 0.47 70.00 22.2179 4.4773 0 
181 1 0.46 70.00 26.1427 14.0887 0 
182 1 0.52 70.00 5.9682 12.1921 0 
183 1 0.52 70.00 11.4916 4.7959 0 
184 1 0.48 70.00 27.4289 10.6615 0 
185 1 0.49 70.00 4.2272 12.6952 0 
186 1 0.48 70.00 9.5021 16.2057 0 
187 1 0.50 70.00 23.3159 18.5110 0 
188 1 0.46 70.00 23.0898 20.9165 0 
189 1 0.48 70.00 21.7743 15.9927 0 
190 1 0.47 70.00 17.0417 20.6180 0 
191 1 0.44 70.00 14.0865 17.0139 0 
192 1 0.52 70.00 8.8319 2.8815 0 
193 1 0.50 70.00 20.6002 11.0916 0 
194 1 0.49 70.00 20.4553 3.6167 0 
195 1 0.42 70.00 8.2135 15.2657 0 
196 1 0.47 70.00 9.9610 11.2221 0 
197 1 0.49 70.00 26.6383 9.6946 0 
198 1 0.47 70.00 2.9670 16.8948 0 
199 1 0.52 70.00 26.7402 5.4423 0 
200 1 0.50 70.00 4.2538 18.5535 0 
201 1 0.47 70.00 19.8512 8.5986 0 
202 1 0.47 70.00 3.4935 1.9848 0 
203 1 0.45 70.00 14.3318 16.4146 0 
204 1 0.44 70.00 5.1671 19.0018 0 
205 1 0.50 70.00 4.3884 11.2238 0 
206 1 0.39 70.00 24.6305 3.8078 0 
207 1 0.53 70.00 2.9280 2.6758 0 
208 1 0.45 70.00 21.7218 7.8365 0 
209 1 0.49 70.00 24.5869 8.0038 0 
210 1 0.45 70.00 17.0267 7.7329 0 
211 1 0.45 70.00 13.2787 16.1984 0 
212 1 0.39 70.00 25.0644 11.8934 0 
213 1 0.48 70.00 26.4230 15.9844 0 
214 1 0.51 70.00 24.7475 18.9729 0 
215 1 0.50 70.00 3.1089 14.3325 0 
216 1 0.44 70.00 22.3601 11.4554 0 
217 1 0.44 70.00 19.1521 4.9288 0 
218 1 0.46 70.00 1.3120 6.2719 0 
219 1 0.49 70.00 6.9236 11.7825 0 
220 1 0.44 70.00 10.7357 6.3806 0 
221 1 0.50 70.00 16.7486 7.8598 0 
222 1 0.49 70.00 26.3696 8.0354 0 
223 1 0.45 70.00 20.7975 0.5932 0 
224 1 0.50 70.00 22.6342 18.1332 0 
225 1 0.51 70.00 17.1806 6.1869 0 
226 1 0.45 70.00 22.2511 2.0210 0 
227 1 0.40 70.00 11.3615 11.2069 0 
228 1 0.44 70.00 26.5079 12.8011 0 
229 1 0.46 70.00 5.3672 21.1600 0 
230 1 0.43 70.00 21.7247 18.6115 0 
231 1 0.49 70.00 21.3395 11.7192 0 
232 1 0.43 70.00 11.2346 20.8084 0 
233 1 0.47 70.00 2.8769 10.8107 0 
234 1 0.45 70.00 9.0175 18.7887 0 
235 1 0.43 70.00 11.0370 12.1965 0 
236 1 0.44 70.00 6.0468 1.8348 0 
237 1 0.40 70.00 5.7177 16.4237 0 
238 1 0.51 70.00 25.7195 2.0804 0 
239 1 0.51 70.00 6.6495 4.4663 0 
240 1 0.45 70.00 20.3635 8.6372 0 
241 1 0.42 70.00 23.3287 10.8784 0 
242 1 0.47 70.00 27.0379 1.6114 0 
243 1 0.46 70.00 5.4421 11.2418 0 
244 1 0.47 70.00 13.8431 3.8013 0 
245 1 0.47 70.00 15.4979 17.8048 0 
246 1 0.45 70.00 20.4587 15.5626 0 
247 1 0.47 70.00 20.8327 15.3764 0 
248 1 0.48 70.00 3.1452 8.9426 0 
249 1 0.45 70.00 23.6603 12.2303 0 
250 1 0.48 70.00 18.0507 5.6126 0 
251 1 0.43 70.00 23.7728 15.6926 0 
252 1 0.48 70.00 25.9102 20.8411 0 
253 1 0.42 70.00 27.7969 21.3271 0 
254 1 0.50 70.00 18.0662 14.5910 0 
255 1 0.51 70.00 2.1909 6.0442 0 
256 1 0.46 70.00 4.1254 18.2158 0 
257 1 0.43 70.00 0.6935 10.7105 0 
258 1 0.47 70.00 22.2157 10.5404 0 
259 1 0.42 70.00 10.5398 9.8865 0 
260 1 0.47 70.00 3.1980 14.6510 0 
261 1 0.44 70.00 18.8978 17.7627 0 
262 1 0.47 70.00 25.5889 15.6940 0 
263 1 0.52 70.00 12.5839 16.8947 0 
264 1 0.50 70.00 4.5595 15.0550 0 
265 1 0.42 70.00 12.7551 10.6249 0 
266 1 0.50 70.00 11.6156 20.4365 0 
267 1 0.53 70.00 14.0416 10.4872 0 
268 1 0.47 70.00 5.2930 17.9427 0 
269 1 0.45 70.00 2.9743 13.7600 0 
270 1 0.52 70.00 13.0169 0.5265 0 
271 1 0.49 70.00 25.3359 18.3395 0 
272 1 0.49 70.00 19.0787 5.7742 0 
273 1 0.53 70.00 12.1256 1.4270 0 
274 1 0.51 70.00 3.6660 14.7347 0 
275 1 0.48 70.00 10.5103 11.3064 0 
276 1 0.44 70.00 20.6711 15.8762 0 
277 1 0.50 70.00 19.2045 15.9963 0 
278 1 0.49 70.00 24.4986 11.9681 0 
279 1 0.44 70.00 9.9497 8.3747 0 
280 1 0.44 70.00 7.0146 7.1553 0 
281 1 0.50 70.00 24.7381 17.6359 0 
282 1 0.46 70.00 13.9757 5.9153 0 
283 1 0.46 70.00 10.2565 15.7817 0 
284 1 0.46 70.00 3.1778 13.8491 0 
285 1 0.49 70.00 14.4376 17.2683 0 
286 1 0.44 70.00 7.3123 8.8558 0 
287 1 0.49 70.00 5.1585 11.8657 0 
288 1 0.47 70.00 25.0199 3.1969 0 
289 1 0.53 70.00 21.5500 21.2652 0 
290 1 0.48 70.00 2.9562 14.4946 0 
291 1 0.44 70.00 21.5488 4.9828 0 
292 1 0.46 70.00 9.1931 4.8449 0 
293 1 0.43 70.00 2.8075 1.5222 0 
294 1 0.45 70.00 5.9142 14.9768 0 
295 1 0.44 70.00 25.2782 11.4835 0 
296 1 0.45 70.00 18.4327 7.4995 0 
297 1 0.44 70.00 20.7790 20.0609 0 
298 1 0.44 70.00 25.1980 6.7330 0 
299 1 0.46 70.00 3.3644 19.7725 0 
300 1 0.47 70.00 25.4401 4.5964 0 
301 1 0.47 70.00 24.3344 10.9455 0 
302 1 0.52 70.00 18.9013 12.8343 0 
303 1 0.50 70.00 16.8611 3.4601 0 
304 1 0.50 70.00 17.1610 0.7087 0 
305 1 0.44 70.00 17.9559 13.5294 0 
306 1 0.47 70.00 14.5727 6.2804 0 
307 1 0.48 70.00 11.9147 6.1664 0 
308 1 0.47 70.00 9.8864 19.3272 0 
309 1 0.45 70.00 9.2717 10.5713 0 
310 1 0.48 70.00 2.2381 16.4732 0 
311 1 0.47 70.00 8.7190 17.1749 0 
312 1 0.49 70.00 25.6038 17.1395 0 
313 1 0.54 70.00 27.2742 13.1362 0 
314 1 0.41 70.00 2.7361 9.4081 0 
315 1 0.46 70.00 22.1162 8.7571 0 
316 1 0.49 70.00 1.1016 8.6614 0 
317 1 0.45 70.00 8.5369 8.4998 0 
318 1 0.47 70.00 15.4987 5.9715 0 
319 1 0.52 70.00 18.6514 8.4549 0 
320 1 0.49 70.00 4.2917 18.9524 0 
321 1 0.48 70.00 24.7775 7.8718 0 
322 1 0.50 70.00 19.7280 12.1361 0 
323 1 0.42 70.00 23.3618 9.6228 0 
324 1 0.50 70.00 24.8137 4.8090 0 
325 1 0.45 70.00 10.4224 12.1939 0 
326 1 0.46 70.00 2.4067 10.6421 0 
327 1 0.46 70.00 14.3070 17.7783 0 
328 1 0.48 70.00 25.7364 14.4662 0 
329 1 0.48 70.00 25.4221 3.9344 0 
330 1 0.39 70.00 12.6998 7.8098 0 
331 1 0.43 70.00 5.5795 14.5657 0 
332 1 0.51 70.00 20.9373 6.4066 0 
333 1 0.42 70.00 25.2808 17.6579 0 
334 1 0.45 70.00 6.3479 6.3154 0 
335 1 0.45 70.00 3.7546 1.5457 0 
336 1 0.47 70.00 12.7209 14.6338 0 
337 1 0.43 70.00 16.5736 3.6833 0 
338 1 0.42 70.00 20.5631 10.4745 0 
339 1 0.51 70.00 21.1211 4.3996 0 
340 1 0.47 70.00 9.6802 5.5830 0 
341 1 0.46 70.00 24.9507 9.3999 0 
342 1 0.49 70.00 9.3773 10.7789 0 
343 1 0.45 70.00 23.0318 4.9931 0 
344 1 0.45 70.00 4.6069 16.1550 0 
345 1 0.51 70.00 1.5172 17.1276 0 
346 1 0.47 70.00 17.3454 4.2751 0 
347 1 0.43 70.00 6.6731 17.9447 0 
348 1 0.45 70.00 5.5021 4.3097 0 
349 1 0.44 70.00 22.9296 3.1382 0 
350 1 0.44 70.00 5.8426 9.7224 0 
351 1 0.49 70.00 23.9039 19.9985 0 
352 1 0.44 70.00 15.8033 1.8936 0 
353 1 0.42 70.00 1.6682 3.3722 0 
354 1 0.45 70.00 7.7592 2.9506 0 
355 1 0.42 70.00 13.7068 18.9172 0 
356 1 0.41 70.00 17.1848 5.2751 0 
357 1 0.50 70.00 10.3345 21.7057 0 
358 1 0.43 70.00 7.2660 11.9548 0 
359 1 0.51 70.00 17.2632 1.7504 0 
360 1 0.45 70.00 25.2299 12.2994 0 
361 1 0.45 70.00 24.2641 1.3861 0 
362 1 0.45 70.00 1.0475 9.8991 0 
363 1 0.43 70.00 25.0592 5.0409 0 
364 1 0.50 70.00 25.9060 11.6907 0 
365 1 0.48 70.00 27.0829 12.4346 0 
366 1 0.50 70.00 10.4866 4.8700 0 
367 1 0.42 70.00 24.1230 17.5153 0 
368 1 0.45 70.00 22.8150 19.2627 0 
369 1 0.46 70.00 16.9127 0.6216 0 
370 1 0.54 70.00 24.0436 6.4083 0 
371 1 0.47 70.00 13.5082 3.5660 0 
372 1 0.47 70.00 21.7554 9.2355 0 
373 1 0.47 70.00 15.7636 17.3437 0 
374 1 0.49 70.00 23.4502 1.0442 0 
375 1 0.48 70.00 12.9977 1.0284 0 
376 1 0.48 70.00 6.0333 9.1429 0 
377 1 0.50 70.00 25.3250 19.7662 0 
378 1 0.45 70.00 16.5122 17.1590 0 
379 1 0.47 70.00 25.2818 18.9821 0 
380 1 0.47 70.00 27.7592 14.4685 0 
381 1 0.45 70.00 14.0730 20.8416 0 
382 1 0.48 70.00 22.7057 1.8618 0 
383 1 0.45 70.00 7.0951 12.7939 0 
384 1 0.47 70.00 10.8374 16.7903 0 
385 1 0.44 70.00 3.4605 16.9011 0 
386 1 0.48 70.00 8.4608 1.2708 0 
387 1 0.47 70.00 15.3425 2.8367 0 
388 1 0.53 70.00 22.6197 16.9562 0 
389 1 0.43 70.00 27.1757 17.1660 0 
390 1 0.49 70.00 26.9170 15.0227 0 
391 1 0.43 70.00 21.8613 11.8341 0 
392 1 0.48 70.00 4.8047 7.7367 0 
393 1 0.42 70.00 3.4685 11.8491 0 
394 1 0.45 70.00 21.5054 17.3956 0 
395 1 0.44 70.00 8.1174 21.2524 0 
396 1 0.41 70.00 21.7290 17.3161 0 
397 1 0.41 70.00 6.4750 19.6790 0 
398 1 0.40 70.00 19.1930 15.6219 0 
399 1 0.42 70.00 14.8546 3.6648 0 
400 1 0.43 70.00 22.4767 8.1667 0 
401 1 0.46 70.00 2.6142 12.0881 0 
402 1 0.46 70.00 7.2542 5.8137 0 
403 1 0.46 70.00 16.8918 13.2707 0 
404 1 0.43 70.00 27.3685 1.3349 0 
405 1 0.49 70.00 8.7793 16.0518 0 
406 1 0.50 70.00 15.7883 13.6376 0 
407 1 0.46 70.00 9.4718 7.7561 0 
408 1 0.47 70.00 22.3332 18.3253 0 
409 1 0.44 70.00 18.2759 20.9768 0 
410 1 0.49 70.00 6.7125 1.3197 0 
411 1 0.46 70.00 5.2792 20.6293 0 
412 1 0.45 70.00 14.4944 21.7494 0 
413 1 0.47 70.00 1.1281 18.0231 0 
414 1 0.49 70.00 12.5627 0.9120 0 
415 1 0.46 70.00 16.2422 10.0782 0 
416 1 0.49 70.00 21.6738 12.4575 0 
417 1 0.43 70.00 14.4190 21.3494 0 
418 1 0.44 70.00 7.0945 4.0574 0 
419 1 0.47 70.00 16.8947 6.5780 0 
420 1 0.43 70.00 10.5654 0.5254 0 
421 1 0.49 70.00 21.0617 20.0238 0 
422 1 0.47 70.00 26.5581 3.9354 0 
423 1 0.48 70.00 12.4073 1.6799 0 
424 1 0.42 70.00 14.2760 3.3103 0 
425 1 0.45 70.00 8.0290 11.9089 0 
426 1 0.47 70.00 24.7624 14.0427 0 
427 1 0.49 70.00 10.8529 7.5579 0 
428 1 0.46 70.00 10.9135 10.7446 0 
429 1 0.52 70.00 10.1035 10.8635 0 
430 1 0.46 70.00 1.0136 16.1619 0 
431 1 0.47 70.00 17.3068 17.9528 0 
432 1 0.45 70.00 27.7339 1.2541 0 
433 1 0.49 70.00 25.6444 9.4492 0 
434 1 0.48 70.00 2.3137 16.8136 0 
435 1 0.45 70.00 23.2998 7.9177 0 
436 1 0.47 70.00 15.1618 0.6692 0 
437 1 0.53 70.00 18.9944 14.1460 0 
438 1 0.49 70.00 18.6793 11.5636 0 
439 1 0.45 70.00 21.3750 20.8424 0 
440 1 0.50 70.00 6.7774 6.5309 0 
441 1 0.46 70.00 15.5863 20.8373 0 
442 1 0.50 70.00 14.9945 12.5492 0 
443 1 0.50 70.00 1.3167 3.9916 0 
444 1 0.46 70.00 7.5167 9.9847 0 
445 1 0.47 70.00 22.3576 15.4706 0 
446 1 0.52 70.00 27.0694 3.9050 0 
447 1 0.50 70.00 25.8481 5.9958 0 
448 1 0.50 70.00 16.2054 7.2429 0 
449 1 0.47 70.00 13.3055 2.9166 0 
450 1 0.49 70.00 5.8200 4.3904 0 
451 1 0.49 70.00 15.5575 21.5452 0 
452 1 0.47 70.00 5.3822 9.1130 0 
453 1 0.47 70.00 27.7264 18.6009 0 
454 1 0.48 70.00 19.2624 4.4661 0 
455 1 0.48 70.00 13.8261 1.8265 0 
456 1 0.50 70.00 22.5383 13.6709 0 
457 1 0.52 70.00 14.7759 11.4579 0 
458 1 0.49 70.00 16.3507 4.5318 0 
459 1 0.47 70.00 25.5629 7.2885 0 
460 1 0.47 70.00 22.1512 20.7589 0 
461 1 0.46 70.00 19.2010 2.2009 0 
462 1 0.56 70.00 22.4052 5.7060 0 
463 1 0.47 70.00 17.1282 14.6027 0 
464 1 0.48 70.00 11.4495 19.0582 0 
465 1 0.46 70.00 22.8415 5.9544 0 
466 1 0.46 70.00 11.1245 16.1741 0 
467 1 0.52 70.00 24.3132 14.3572 0 
468 1 0.47 70.00 13.6310 17.6746 0 
469 1 0.45 70.00 13.1760 18.8866 0 
470 1 0.47 70.00 3.4724 21.0198 0 
471 1 0.45 70.00 16.1498 1.4345 0 
472 1 0.48 70.00 19.9098 5.7595 0 
473 1 0.45 70.00 8.0018 21.7069 0 
474 1 0.46 70.00 15.6593 6.1147 0 
475 1 0.46 70.00 24.5607 1.5528 0 
476 1 0.53 70.00 18.1821 4.6919 0 
477 1 0.46 70.00 19.4141 9.1788 0 
478 1 0.49 70.00 21.2148 19.1518 0 
479 1 0.43 70.00 4.0971 10.7732 0 
480 1 0.45 70.00 24.6298 15.6377 0 
481 1 0.43 70.00 22.0192 15.0398 0 
482 1 0.45 70.00 10.3571 18.0137 0 
483 1 0.52 70.00 5.8640 17.4728 0 
484 1 0.50 70.00 4.0789 6.5721 0 
485 1 0.44 70.00 9.8989 10.0845 0 
486 1 0.45 70.00 2.9458 2.2194 0 
487 1 0.48 70.00 8.1270 11.1029 0 
488 1 0.50 70.00 15.5947 4.6679 0 
489 1 0.45 70.00 26.8909 12.0749 0 
490 1 0.45 70.00 9.0036 9.9645 0 
491 1 0.48 70.00 1.3658 1.1686 0 
492 1 0.51 70.00 7.9249 9.3694 0 
493 1 0.44 70.00 19.9416 1.2096 0 
494 1 0.43 70.00 23.2796 17.7914 0 
495 1 0.48 70.00 26.2492 20.2665 0 
496 1 0.51 70.00 25.5393 20.3898 0 
497 1 0.43 70.00 23.7902 10.2957 0 
498 1 0.51 70.00 4.1514 17.6791 0 
499 1 0.44 70.00 11.9793 14.3534 0 
500 1 0.50 70.00 23.9086 2.9458 0 
501 1 0.41 70.00 24.9329 15.2122 0 
502 1 0.43 70.00 11.6587 16.2011 0 
503 1 0.48 70.00 26.1782 21.0280 0 
504 1 0.48 70.00 15.5034 15.0894 0 
505 1 0.49 70.00 20.3003 5.7109 0 
506 1 0.43 70.00 6.7279 1.9850 0 
507 1 0.45 70.00 6.1628 1.0580 0 
508 1 0.45 70.00 2.0019 4.7528 0 
509 1 0.45 70.00 1.2973 20.9567 0 
510 1 0.49 70.00 23.6601 20.3695 0 
511 1 0.50 70.00 20.0553 4.5418 0 
512 1 0.52 70.00 11.7992 9.6517 0 
513 1 0.51 70.00 27.6751 13.7377 0 
514 1 0.50 70.00 23.6167 16.7514 0 
515 1 0.46 70.00 9.4488 13.1358 0 
516 1 0.53 70.00 24.8401 14.8958 0 
517 1 0.51 70.00 19.6908 12.5821 0 
518 1 0.44 70.00 4.0563 4.9318 0 
519 1 0.49 70.00 2.3247 19.7858 0 
520 1 0.44 70.00 20.8741 15.8239 0 
521 1 0.48 70.00 10.4060 14.3121 0 
522 1 0.47 70.00 12.6103 4.7781 0 
523 1 0.45 70.00 26.2028 4.8802 0 
524 1 0.43 70.00 22.1089 18.0385 0 
525 1 0.47 70.00 20.2770 7.3624 0 
526 1 0.49 70.00 19.0743 0.5299 0 
527 1 0.49 70.00 11.5044 17.2279 0 
528 1 0.44 70.00 18.7192 13.3167 0 
529 1 0.47 70.00 3.8165 3.2802 0 
530 1 0.45 70.00 15.5822 12.9151 0 
531 1 0.47 70.00 27.6366 1.4552 0 
532 1 0.50 70.00 3.8305 14.3400 0 
533 1 0.45 70.00 25.7609 1.3591 0 
534 1 0.41 70.00 11.1775 14.4392 0 
535 1 0.48 70.00 9.8154 20.3069 0 
536 1 0.47 70.00 24.9526 13.0803 0 
537 1 0.47 70.00 1.2607 13.6399 0 
538 1 0.40 70.00 19.7071 11.1965 0 
539 1 0.46 70.00 7.4206 9.2323 0 
540 1 0.49 70.00 11.0151 17.3376 0 
541 1 0.40 70.00 24.2607 4.0422 0 
542 1 0.43 70.00 12.0555 14.7700 0 
543 1 0.45 70.00 6.9867 7.8564 0 
544 1 0.48 70.00 12.1366 7.7024 0 
545 1 0.41 70.00 26.3913 18.8043 0 
546 1 0.42 70.00 8.9856 12.2971 0 
547 1 0.50 70.00 6.9179 10.2675 0 
548 1 0.47 70.00 19.3614 20.3343 0 
549 1 0.45 70.00 23.7644 18.9072 0 
550 1 0.45 70.00 11.3763 7.9093 0 
551 1 0.40 70.00 18.2991 16.4167 0 
552 1 0.45 70.00 1.8931 10.1026 0 
553 1 0.44 70.00 13.3489 16.7987 0 
554 1 0.49 70.00 19.5908 17.9603 0 
555 1 0.49 70.00 19.9554 10.6869 0 
556 1 0.47 70.00 14.5009 15.3999 0 
557 1 0.44 70.00 20.6540 20.2308 0 
558 1 0.49 70.00 7.0759 2.4647 0 
559 1 0.42 70.00 8.2613 2.5614 0 
560 1 0.47 70.00 5.3518 14.1987 0 
561 1 0.42 70.00 11.9124 18.4219 0 
562 1 0.53 70.00 26.8212 3.0025 0 
563 1 0.48 70.00 2.2322 11.6711 0 
564 1 0.47 70.00 0.7711 2.3402 0 
565 1 0.48 70.00 8.5000 4.3801 0 
566 1 0.46 70.00 4.6337 10.3285 0 
567 1 0.44 70.00 25.9661 12.9891 0 
568 1 0.43 70.00 8.8868 8.4732 0 
569 1 0.50 70.00 5.6067 5.1722 0 
570 1 0.46 70.00 24.2450 0.7176 0 
571 1 0.52 70.00 10.6500 3.9898 0 
572 1 0.47 70.00 19.6356 9.0147 0 
573 1 0.51 70.00 5.6009 4.9468 0 
574 1 0.50 70.00 0.5855 6.1246 0 
575 1 0.45 70.00 26.9953 8.1927 0 
576 1 0.50 70.00 14.0785 12.1792 0 
577 1 0.49 70.00 24.6740 10.1625 0 
578 1 0.44 70.00 8.1295 17.8907 0 
579 1 0.45 70.00 1.0274 14.2663 0 
580 1 0.48 70.00 15.8503 3.6811 0 
581 1 0.49 70.00 7.4890 5.1458 0 
582 1 0.46 70.00 8.9679 6.5381 0 
583 1 0.45 70.00 26.9295 13.0945 0 
584 1 0.45 70.00 14.8244 13.4411 0 
585 1 0.46 70.00 20.4912 16.4954 0 
586 1 0.43 70.00 5.8675 17.2562 0 
587 1 0.46 70.00 15.9915 11.8770 0 
588 1 0.45 70.00 2.9511 5.9082 0 
589 1 0.42 70.00 26.8491 7.1179 0 
590 1 0.49 70.00 10.9470 21.2335 0 
591 1 0.44 70.00 15.1107 14.4148 0 
592 1 0.47 70.00 18.2417 18.1962 0 
593 1 0.46 70.00 3.9044 1.6858 0 
594 1 0.45 70.00 25.6354 21.1982 0 
595 1 0.41 70.00 8.5521 16.4380 0 
596 1 0.46 70.00 3.5957 2.2854 0 
597 1 0.43 70.00 7.4049 0.5001 0 
598 1 0.46 70.00 5.0090 17.3398 0 
599 1 0.39 70.00 26.5759 21.2435 0 
600 1 0.46 70.00 26.0060 12.0553 0 
601 1 0.44 70.00 17.3047 9.3998 0 
602 1 0.50 70.00 8.9680 9.1086 0 
603 1 0.49 70.00 13.9145 16.5886 0 
604 1 0.48 70.00 8.2611 6.8458 0 
605 1 0.52 70.00 3.0878 4.4576 0 
606 1 0.46 70.00 19.7139 15.6563 0 
607 1 0.43 70.00 10.1290 16.2887 0 
608 1 0.48 70.00 8.7386 12.6738 0 
609 1 0.48 70.00 19.9932 16.0093 0 
610 1 0.46 70.00 24.5412 8.7759 0 
611 1 0.46 70.00 0.5978 14.4065 0 
612 1 0.49 70.00 16.0435 12.9286 0 
613 1 0.44 70.00 23.2268 18.7773 0 
614 1 0.40 70.00 11.6159 5.3071 0 
615 1 0.45 70.00 23.5441 1.6445 0 
616 1 0.50 70.00 0.6317 20.6941 0 
617 1 0.46 70.00 24.2262 7.3201 0 
618 1 0.48 70.00 7.3200 17.8333 0 
619 1 0.48 70.00 22.5189 21.0449 0 
620 1 0.50 70.00 13.8941 20.0229 0 
621 1 0.47 70.00 22.3768 13.9260 0 
622 1 0.48 70.00 19.3712 8.1957 0 
623 1 0.44 70.00 12.0012 19.3658 0 
624 1 0.51 70.00 21.3605 15.2598 0 
625 1 0.49 70.00 3.9463 16.6172 0 
626 1 0.49 70.00 5.6352 16.0228 0 
627 1 0.51 70.00 17.1466 17.3997 0 
628 1 0.51 70.00 14.1714 14.0114 0 
629 1 0.50 70.00 19.5609 11.4804 0 
630 1 0.44 70.00 25.5215 9.0403 0 
631 1 0.50 70.00 24.7866 17.0049 0 
632 1 0.50 70.00 11.0790 13.0434 0 
633 1 0.45 70.00 23.3999 13.9183 0 
634 1 0.49 70.00 25.6068 16.2205 0 
635 1 0.44 70.00 21.9731 1.9485 0 
636 1 0.40 70.00 9.6170 20.8505 0 
637 1 0.44 70.00 19.8422 16.6577 0 
638 1 0.54 70.00 6.2956 11.9218 0 
639 1 0.48 70.00 5.2628 4.9785 0 
640 1 0.50 70.00 4.6581 9.2840 0 
641 1 0.47 70.00 2.2622 6.2659 0 
642 1 0.46 70.00 16.7404 13.9480 0 
643 1 0.46 70.00 15.8520 7.6902 0 
644 1 0.45 70.00 2.4660 13.9087 0 
645 1 0.47 70.00 25.5105 4.3687 0 
646 1 0.46 70.00 12.4153 6.3467 0 
647 1 0.47 70.00 17.0146 4.4595 0 
648 1 0.49 70.00 7.5861 15.6546 0 
649 1 0.44 70.00 27.4719 9.8278 0 
650 1 0.47 70.00 15.9671 0.6747 0 
651 1 0.46 70.00 25.6537 8.8175 0 
652 1 0.52 70.00 21.9381 3.1681 0 
653 1 0.42 70.00 5.3494 6.8155 0 
654 1 0.50 70.00 13.3947 16.0191 0 
655 1 0.50 70.00 4.8374 2.4308 0 
656 1 0.50 70.00 26.4958 17.6398 0 
657 1 0.48 70.00 15.3934 9.5096 0 
658 1 0.54 70.00 20.0286 18.2064 0 
659 1 0.48 70.00 11.9616 19.8868 0 
660 1 0.47 70.00 15.2792 18.3147 0 
661 1 0.46 70.00 4.5705 11.5786 0 
662 1 0.47 70.00 9.4075 17.7333 0 
663 1 0.48 70.00 5.6107 19.6783 0 
664 1 0.49 70.00 11.9943 9.0491 0 
665 1 0.46 70.00 12.3688 18.0430 0 
666 1 0.46 70.00 9.7620 3.1183 0 
667 1 0.49 70.00 25.1615 8.8493 0 
668 1 0.44 70.00 16.0007 9.8895 0 
669 1 0.47 70.00 19.5555 13.0379 0 
670 1 0.50 70.00 8.8072 17.8994 0 
671 1 0.47 70.00 13.0215 11.6376 0 
672 1 0.44 70.00 25.2181 19.2627 0 
673 1 0.45 70.00 23.9208 21.1507 0 
674 1 0.49 70.00 8.4996 10.2238 0 
675 1 0.45 70.00 24.3756 10.4186 0 
676 1 0.45 70.00 18.0716 6.8959 0 
677 1 0.48 70.00 11.4544 5.9283 0 
678 1 0.49 70.00 13.9749 8.5497 0 
679 1 0.51 70.00 4.6289 7.9937 0 
680 1 0.42 70.00 27.1160 2.1098 0 
681 1 0.43 70.00 15.4547 20.0679 0 
682 1 0.46 70.00 11.8848 9.2414 0 
683 1 0.49 70.00 11.9800 4.7108 0 
684 1 0.49 70.00 8.4053 17.5108 0 
685 1 0.44 70.00 11.3254 15.5945 0 
686 1 0.47 70.00 17.4220 19.0681 0 
687 1 0.48 70.00 11.6501 14.8560 0 
688 1 0.51 70.00 16.5203 0.5024 0 
689 1 0.46 70.00 7.6902 14.0026 0 
690 1 0.47 70.00 14.4306 14.5557 0 
691 1 0.49 70.00 9.5617 19.8065 0 
692 1 0.46 70.00 9.4203 14.2043 0 
693 1 0.43 70.00 15.4139 11.0260 0 
694 1 0.47 70.00 15.5834 3.7895 0 
695 1 0.48 70.00 4.8755 12.1652 0 
696 1 0.52 70.00 5.8565 21.3218 0 
697 1 0.48 70.00 4.4140 3.9022 0 
698 1 0.43 70.00 23.5257 14.5898 0 
699 1 0.50 70.00 4.7746 18.3038 0 
700 1 0.41 70.00 11.3240 0.8332 0 
701 1 0.45 70.00 3.7119 12.5737 0 
702 1 0.45 70.00 17.2491 5.5001 0 
703 1 0.50 70.00 6.4442 8.9544 0 
704 1 0.45 70.00 4.7529 8.1790 0 
705 1 0.46 70.00 12.2626 1.1965 0 
706 1 0.44 70.00 5.6850 5.8166 0 
707 1 0.47 70.00 11.7729 5.8937 0 
708 1 0.48 70.00 13.0715 6.7092 0 
709 1 0.49 70.00 11.8202 20.6703 0 
710 1 0.51 70.00 24.4032 4.5060 0 
711 1 0.46 70.00 9.2370 3.8590 0 
712 1 0.48 70.00 20.3330 2.8412 0 
713 1 0.48 70.00 10.6795 18.7886 0 
714 1 0.54 70.00 26.5017 16.2895 0 
715 1 0.48 70.00 8.8673 21.7845 0 
716 1 0.46 70.00 24.3305 3.4700 0 
717 1 0.42 70.00 12.1338 13.5962 0 
718 1 0.45 70.00 1.3383 10.5400 0 
719 1 0.48 70.00 12.4588 14.9782 0 
720 1 0.46 70.00 8.6619 15.7760 0 
721 1 0.49 70.00 5.0638 7.4041 0 
722 1 0.40 70.00 26.1490 7.6042 0 
723 1 0.51 70.00 2.9263 5.0055 0 
724 1 0.48 70.00 16.1101 9.3126 0 
725 1 0.43 70.00 20.9943 6.7963 0 
726 1 0.48 70.00 8.8271 11.5963 0 
727 1 0.46 70.00 16.7549 18.1587 0 
728 1 0.48 70.00 16.0506 7.6008 0 
729 1 0.49 70.00 4.5540 18.1668 0 
730 1 0.42 70.00 7.6254 14.7804 0 
731 1 0.49 70.00 20.0082 2.6011 0 
732 1 0.46 70.00 27.1157 4.9863 0 
733 1 0.49 70.00 25.6719 13.8127 0 
734 1 0.45 70.00 27.4549 9.4149 0 
735 1 0.39 70.00 25.9943 16.5967 0 
736 1 0.46 70.00 23.8238 4.7738 0 
737 1 0.43 70.00 20.9912 3.0794 0 
738 1 0.50 70.00 27.7211 6.6583 0 
739 1 0.43 70.00 23.7892 17.6734 0 
740 1 0.46 70.00 11.9285 8.6490 0 
741 1 0.47 70.00 11.1482 1.6218 0 
742 1 0.45 70.00 16.5967 19.2515 0 
743 1 0.50 70.00 18.4276 10.9025 0 
744 1 0.53 70.00 2.0935 15.6471 0 
745 1 0.51 70.00 11.2370 9.2934 0 
746 1 0.44 70.00 17.2779 19.7952 0 
747 1 0.48 70.00 15.5877 14.7051 0 
748 1 0.48 70.00 22.6261 4.3798 0 
749 1 0.50 70.00 16.4542 6.4216 0 
750 1 0.46 70.00 6.6508 20.2007 0 
751 1 0.44 70.00 6.2631 7.4516 0 
752 1 0.42 70.00 20.8362 5.5839 0 
753 1 0.43 70.00 15.9626 14.1907 0 
754 1 0.50 70.00 15.1121 6.2859 0 
755 1 0.47 70.00 13.7092 9.5134 0 
756 1 0.45 70.00 20.4878 18.8304 0 
757 1 0.52 70.00 21.6605 12.1523 0 
758 1 0.45 70.00 25.1989 8.3945 0 
759 1 0.49 70.00 13.3169 9.4594 0 
760 1 0.47 70.00 20.3731 4.6516 0 
761 1 0.43 70.00 15.3422 0.7915 0 
762 1 0.43 70.00 26.5491 11.7647 0 
763 1 0.42 70.00 14.1309 11.2924 0 
764 1 0.50 70.00 19.6998 13.2151 0 
765 1 0.46 70.00 16.2769 2.9992 0 
766 1 0.48 70.00 11.8571 3.2462 0 
767 1 0.43 70.00 16.7464 8.8354 0 
768 1 0.45 70.00 21.2586 16.3345 0 
769 1 0.51 70.00 5.0777 3.6657 0 
770 1 0.45 70.00 6.2323 14.5106 0 
771 1 0.45 70.00 9.9474 16.4565 0 
772 1 0.46 70.00 10.5888 4.5047 0 
773 1 0.53 70.00 6.3822 21.4388 0 
774 1 0.44 70.00 5.7851 9.4718 0 
775 1 0.44 70.00 17.1012 2.2298 0 
776 1 0.45 70.00 1.4286 21.2213 0 
777 1 0.49 70.00 21.1177 15.8003 0 
778 1 0.49 70.00 1.1312 8.3716 0 
779 1 0.45 70.00 24.9897 17.4267 0 
780 1 0.51 70.00 14.5873 11.6784 0 
781 1 0.48 70.00 1.7640 4.2216 0 
782 1 0.43 70.00 10.8622 14.6828 0 
783 1 0.39 70.00 17.4965 16.3774 0 
784 1 0.45 70.00 13.3300 21.0106 0 
785 1 0.49 70.00 16.5848 15.9864 0 
786 1 0.44 70.00 19.4423 19.7162 0 
787 1 0.45 70.00 17.5439 10.3871 0 
788 1 0.47 70.00 8.3240 4.8477 0 
789 1 0.47 70.00 8.6045 19.3152 0 
790 1 0.46 70.00 4.2591 2.8784 0 
791 1 0.50 70.00 13.5770 1.1921 0 
792 1 0.49 70.00 19.7603 14.6389 0 
793 1 0.49 70.00 11.3536 8.8102 0 
794 1 0.51 70.00 27.5784 19.5425 0 
795 1 0.48 70.00 27.7086 21.7281 0 
796 1 0.44 70.00 22.9892 18.2893 0 
797 1 0.47 70.00 11.0909 12.0015 0 
798 1 0.51 70.00 13.8555 11.0712 0 
799 1 0.48 70.00 17.4494 8.3790 0 
800 1 0.42 70.00 25.2829 20.6133 0 
801 1 0.49 70.00 21.7795 11.6221 0 
802 1 0.46 70.00 14.6396 1.8512 0 
803 1 0.45 70.00 18.7391 9.8465 0 
804 1 0.49 70.00 0.6249 0.7906 0 
805 1 0.46 70.00 8.8289 13.7026 0 
806 1 0.49 70.00 22.3506 6.3459 0 
807 1 0.47 70.00 23.0310 11.1960 0 
808 1 0.40 70.00 22.4511 10.9602 0 
809 1 0.43 70.00 14.9086 4.7425 0 
810 1 0.43 70.00 6.4423 18.0541 0 
811 1 0.44 70.00 2.3746 19.3849 0 
812 1 0.52 70.00 13.4353 19.5974 0 
813 1 0.44 70.00 3.2868 1.2789 0 
814 1 0.50 70.00 9.4889 16.4443 0 
815 1 0.47 70.00 6.5373 15.1338 0 
816 1 0.45 70.00 4.9191 2.9998 0 
817 1 0.42 70.00 25.9242 7.9858 0 
818 1 0.44 70.00 0.6727 7.5661 0 
819 1 0.51 70.00 11.1895 13.9924 0 
820 1 0.46 70.00 14.6839 8.3388 0 
821 1 0.52 70.00 1.9321 7.8875 0 
822 1 0.48 70.00 16.2978 20.7376 0 
823 1 0.50 70.00 2.9160 10.4215 0 
824 1 0.49 70.00 22.7574 21.4726 0 
825 1 0.52 70.00 24.2924 21.5017 0 
826 1 0.47 70.00 5.8774 15.2542 0 
827 1 0.44 70.00 1.1339 18.3659 0 
828 1 0.54 70.00 3.1224 12.9835 0 
829 1 0.45 70.00 27.1260 2.9814 0 
830 1 0.49 70.00 20.3703 3.8324 0 
831 1 0.50 70.00 19.7025 12.8162 0 
832 1 0.47 70.00 13.5316 14.6803 0 
833 1 0.43 70.00 5.0899 5.1416 0 
834 1 0.42 70.00 8.3889 12.0998 0 
835 1 0.43 70.00 1.5536 8.8316 0 
836 1 0.46 70.00 11.4516 15.2300 0 
837 1 0.51 70.00 9.7207 10.9106 0 
838 1 0.47 70.00 19.8682 21.1129 0 
839 1 0.48 70.00 3.1386 19.6549 0 
840 1 0.47 70.00 23.3087 2.9199 0 
841 1 0.45 70.00 8.8676 19.3057 0 
842 1 0.50 70.00 18.3950 2.7669 0 
843 1 0.48 70.00 19.8159 21.3560 0 
844 1 0.44 70.00 6.9420 11.5057 0 
845 1 0.52 70.00 26.6295 4.7038 0 
846 1 0.44 70.00 22.7131 15.6924 0 
847 1 0.44 70.00 14.8660 5.0873 0 
848 1 0.51 70.00 18.2153 17.2923 0 
849 1 0.46 70.00 9.9954 18.7429 0 
850 1 0.45 70.00 11.4508 9.4466 0 