# LAMMPS data file for rigid bodies

4312 atoms

2 atom types

0.0 	 28.0 	 xlo xhi 
0.0 	 22.0 	 ylo yhi 
-1.0 	 1.0 	 zlo zhi 

Atoms

1 1 0.47 70.00 19.7031 14.1200 0 
2 1 0.42 70.00 20.0612 17.6911 0 
3 1 0.44 70.00 6.3313 2.8315 0 
4 1 0.43 70.00 15.4137 1.3834 0 
5 1 0.45 70.00 17.7842 19.0519 0 
6 1 0.44 70.00 22.4638 19.5529 0 
7 1 0.46 70.00 4.2830 15.4874 0 
8 1 0.43 70.00 16.4210 15.5437 0 
9 1 0.46 70.00 7.9048 4.3048 0 
10 1 0.48 70.00 5.5939 21.2153 0 
11 1 0.51 70.00 23.4193 1.1668 0 
12 1 0.47 70.00 21.3281 7.0522 0 
13 1 0.40 70.00 13.7157 14.4674 0 
14 1 0.50 70.00 23.6626 21.2835 0 
15 1 0.48 70.00 18.0628 7.1162 0 
16 1 0.48 70.00 6.8433 11.4574 0 
17 1 0.46 70.00 23.9073 4.0630 0 
18 1 0.45 70.00 21.3855 14.8456 0 
19 1 0.45 70.00 12.4742 13.0341 0 
20 1 0.47 70.00 18.2117 16.8839 0 
21 1 0.48 70.00 5.4676 3.9654 0 
22 1 0.50 70.00 11.3353 9.7336 0 
23 1 0.46 70.00 6.5456 16.4960 0 
24 1 0.52 70.00 24.6406 21.7373 0 
25 1 0.49 70.00 22.6896 2.0590 0 
26 1 0.39 70.00 12.0556 15.8002 0 
27 1 0.47 70.00 17.7820 4.2878 0 
28 1 0.43 70.00 20.5182 2.3351 0 
29 1 0.46 70.00 11.6036 21.0997 0 
30 1 0.46 70.00 11.9352 4.7220 0 
31 1 0.50 70.00 5.6395 7.0582 0 
32 1 0.46 70.00 24.1945 8.3990 0 
33 1 0.44 70.00 12.8376 5.8737 0 
34 1 0.47 70.00 3.6364 7.2115 0 
35 1 0.51 70.00 2.9126 16.7023 0 
36 1 0.50 70.00 15.1972 5.5297 0 
37 1 0.43 70.00 8.5015 16.5134 0 
38 1 0.48 70.00 19.5861 12.4774 0 
39 1 0.46 70.00 23.4249 14.4439 0 
40 1 0.42 70.00 25.3556 10.1930 0 
41 1 0.47 70.00 14.3981 20.6651 0 
42 1 0.49 70.00 14.6330 7.0000 0 
43 1 0.42 70.00 9.5118 21.5889 0 
44 1 0.51 70.00 5.9524 14.1634 0 
45 1 0.45 70.00 7.2238 8.7214 0 
46 1 0.41 70.00 19.0573 12.7270 0 
47 1 0.52 70.00 26.7066 21.6123 0 
48 1 0.51 70.00 5.0098 13.2972 0 
49 1 0.47 70.00 16.7350 15.1471 0 
50 1 0.51 70.00 14.0770 13.0811 0 
51 1 0.46 70.00 1.2350 17.3103 0 
52 1 0.47 70.00 1.9809 15.3596 0 
53 1 0.48 70.00 26.4441 13.9397 0 
54 1 0.45 70.00 14.7094 8.0232 0 
55 1 0.47 70.00 27.4276 6.3703 0 
56 1 0.43 70.00 26.6795 19.1449 0 
57 1 0.47 70.00 16.4875 14.8929 0 
58 1 0.46 70.00 1.9413 19.1698 0 
59 1 0.48 70.00 23.4563 14.8019 0 
60 1 0.48 70.00 6.3377 14.7437 0 
61 1 0.47 70.00 23.2800 4.9358 0 
62 1 0.50 70.00 18.6518 13.2906 0 
63 1 0.43 70.00 14.1365 16.2404 0 
64 1 0.43 70.00 1.0735 0.5821 0 
65 1 0.51 70.00 24.2839 6.9539 0 
66 1 0.55 70.00 16.7921 18.0961 0 
67 1 0.49 70.00 18.4270 8.8118 0 
68 1 0.45 70.00 26.2783 15.2409 0 
69 1 0.47 70.00 18.4840 7.5586 0 
70 1 0.44 70.00 24.1456 16.1161 0 
71 1 0.45 70.00 1.6401 12.2861 0 
72 1 0.45 70.00 23.0975 1.4907 0 
73 1 0.51 70.00 27.5447 4.2665 0 
74 1 0.51 70.00 18.6261 13.8826 0 
75 1 0.46 70.00 21.4521 17.6035 0 
76 1 0.41 70.00 9.2299 5.9983 0 
77 1 0.42 70.00 18.4028 1.9959 0 
78 1 0.41 70.00 5.0204 3.4816 0 
79 1 0.44 70.00 19.4538 9.7571 0 
80 1 0.43 70.00 23.0891 10.6669 0 
81 1 0.48 70.00 10.9339 19.0361 0 
82 1 0.46 70.00 1.7014 5.3056 0 
83 1 0.51 70.00 11.1144 17.0524 0 
84 1 0.51 70.00 25.1046 0.8724 0 
85 1 0.57 70.00 18.9722 8.3515 0 
86 1 0.48 70.00 13.3584 5.2549 0 
87 1 0.42 70.00 6.9589 13.2122 0 
88 1 0.52 70.00 16.6534 17.2164 0 
89 1 0.48 70.00 21.8229 8.1084 0 
90 1 0.49 70.00 6.9036 3.7081 0 
91 1 0.49 70.00 19.8789 14.5829 0 
92 1 0.51 70.00 15.2772 9.0116 0 
93 1 0.49 70.00 17.6332 10.5708 0 
94 1 0.47 70.00 10.5255 11.2662 0 
95 1 0.44 70.00 16.0057 11.1574 0 
96 1 0.44 70.00 22.1365 19.0599 0 
97 1 0.41 70.00 8.1764 13.1319 0 
98 1 0.43 70.00 13.5685 12.8644 0 
99 1 0.48 70.00 4.4730 3.9209 0 
100 1 0.51 70.00 7.3451 4.8122 0 
101 1 0.50 70.00 24.4422 6.0615 0 
102 1 0.49 70.00 3.1506 12.8268 0 
103 1 0.47 70.00 6.6310 9.5679 0 
104 1 0.46 70.00 18.9149 12.3655 0 
105 1 0.42 70.00 26.4085 5.6526 0 
106 1 0.48 70.00 4.3533 16.2355 0 
107 1 0.52 70.00 16.9405 21.1695 0 
108 1 0.52 70.00 19.9549 13.6925 0 
109 1 0.47 70.00 25.2117 10.9116 0 
110 1 0.46 70.00 24.0043 1.1790 0 
111 1 0.46 70.00 27.7611 8.9361 0 
112 1 0.49 70.00 26.3409 11.0120 0 
113 1 0.44 70.00 10.2542 2.9397 0 
114 1 0.49 70.00 7.3829 2.4316 0 
115 1 0.45 70.00 26.0031 10.1452 0 
116 1 0.44 70.00 18.5631 0.7207 0 
117 1 0.45 70.00 9.2861 8.2191 0 
118 1 0.48 70.00 20.7835 14.7417 0 
119 1 0.49 70.00 0.6859 6.1545 0 
120 1 0.46 70.00 9.5764 14.4813 0 
121 1 0.53 70.00 25.1664 16.9063 0 
122 1 0.46 70.00 3.9944 4.2422 0 
123 1 0.49 70.00 7.7970 3.9641 0 
124 1 0.45 70.00 23.4395 13.4132 0 
125 1 0.48 70.00 8.8823 6.5454 0 
126 1 0.43 70.00 4.5833 12.3040 0 
127 1 0.48 70.00 18.3876 1.7618 0 
128 1 0.46 70.00 7.2105 9.4166 0 
129 1 0.49 70.00 5.4573 3.0198 0 
130 1 0.49 70.00 5.1408 1.2293 0 
131 1 0.52 70.00 19.5938 19.6991 0 
132 1 0.41 70.00 12.2019 10.0170 0 
133 1 0.44 70.00 12.3398 6.7677 0 
134 1 0.48 70.00 4.4133 8.7166 0 
135 1 0.47 70.00 5.6892 6.5605 0 
136 1 0.50 70.00 19.3554 12.2815 0 
137 1 0.48 70.00 27.1361 19.8378 0 
138 1 0.45 70.00 25.5290 6.3643 0 
139 1 0.49 70.00 17.9918 2.2600 0 
140 1 0.43 70.00 20.8732 17.2617 0 
141 1 0.41 70.00 26.2974 19.0920 0 
142 1 0.45 70.00 8.6903 21.4942 0 
143 1 0.50 70.00 18.5930 5.3435 0 
144 1 0.47 70.00 15.5990 20.7786 0 
145 1 0.44 70.00 24.4311 3.0700 0 
146 1 0.46 70.00 11.2657 0.5886 0 
147 1 0.43 70.00 20.1074 14.0164 0 
148 1 0.43 70.00 25.1021 2.6766 0 
149 1 0.48 70.00 26.3109 18.7113 0 
150 1 0.48 70.00 5.7709 17.7993 0 
151 1 0.46 70.00 25.4431 15.4093 0 
152 1 0.45 70.00 20.5721 19.9786 0 
153 1 0.45 70.00 8.4110 18.5113 0 
154 1 0.48 70.00 9.1526 6.6233 0 
155 1 0.49 70.00 20.4425 6.7214 0 
156 1 0.47 70.00 19.0955 13.6318 0 
157 1 0.47 70.00 0.5838 1.8355 0 
158 1 0.50 70.00 23.9810 20.5360 0 
159 1 0.49 70.00 14.1403 18.3252 0 
160 1 0.47 70.00 22.2873 10.9494 0 
161 1 0.43 70.00 20.7594 14.1486 0 
162 1 0.48 70.00 13.4411 16.8410 0 
163 1 0.46 70.00 10.1446 12.5146 0 
164 1 0.49 70.00 20.1850 17.9076 0 
165 1 0.46 70.00 9.2364 15.0116 0 
166 1 0.46 70.00 2.1023 5.4049 0 
167 1 0.52 70.00 16.1609 14.6308 0 
168 1 0.43 70.00 8.3740 5.4730 0 
169 1 0.48 70.00 4.6779 4.1404 0 
170 1 0.52 70.00 3.5344 9.8097 0 
171 1 0.45 70.00 17.3513 7.2805 0 
172 1 0.50 70.00 8.5913 8.5025 0 
173 1 0.48 70.00 27.3187 8.6977 0 
174 1 0.46 70.00 6.5598 21.0946 0 
175 1 0.46 70.00 10.5314 1.7335 0 
176 1 0.42 70.00 16.3864 6.1891 0 
177 1 0.50 70.00 23.2767 8.5712 0 
178 1 0.44 70.00 25.9792 17.9483 0 
179 1 0.46 70.00 27.1430 2.9007 0 
180 1 0.47 70.00 18.0056 12.3769 0 
181 1 0.45 70.00 6.8692 18.6309 0 
182 1 0.46 70.00 6.0998 16.1391 0 
183 1 0.45 70.00 22.2264 9.4815 0 
184 1 0.49 70.00 9.7101 5.5603 0 
185 1 0.46 70.00 0.8888 9.1639 0 
186 1 0.51 70.00 3.0030 3.1080 0 
187 1 0.45 70.00 18.5855 1.7216 0 
188 1 0.43 70.00 17.5449 20.4413 0 
189 1 0.45 70.00 7.0639 15.0903 0 
190 1 0.47 70.00 15.8969 20.0100 0 
191 1 0.52 70.00 12.5720 9.6248 0 
192 1 0.44 70.00 7.8003 9.0156 0 
193 1 0.50 70.00 22.8556 6.1136 0 
194 1 0.50 70.00 12.7087 3.0662 0 
195 1 0.49 70.00 20.6408 11.8641 0 
196 1 0.48 70.00 0.6857 19.5801 0 
197 1 0.51 70.00 16.3355 20.6560 0 
198 1 0.46 70.00 21.1517 11.7467 0 
199 1 0.44 70.00 26.8157 8.1740 0 
200 1 0.47 70.00 9.9186 16.5059 0 
201 1 0.45 70.00 9.0811 14.0698 0 
202 1 0.49 70.00 1.4057 19.0412 0 
203 1 0.47 70.00 13.8692 8.3936 0 
204 1 0.50 70.00 25.5549 20.9689 0 
205 1 0.47 70.00 2.2904 8.4085 0 
206 1 0.51 70.00 12.7538 12.5577 0 
207 1 0.50 70.00 16.8437 16.9452 0 
208 1 0.44 70.00 4.0026 6.4873 0 
209 1 0.43 70.00 4.8494 2.9160 0 
210 1 0.46 70.00 8.5138 13.7632 0 
211 1 0.46 70.00 24.6000 9.9565 0 
212 1 0.50 70.00 6.4476 18.4013 0 
213 1 0.45 70.00 27.2042 3.1062 0 
214 1 0.48 70.00 20.9225 16.1813 0 
215 1 0.49 70.00 6.7219 1.7460 0 
216 1 0.50 70.00 5.9946 6.8236 0 
217 1 0.48 70.00 25.1993 9.8176 0 
218 1 0.50 70.00 26.8620 15.8054 0 
219 1 0.48 70.00 10.1335 10.2675 0 
220 1 0.41 70.00 10.3149 16.4745 0 
221 1 0.48 70.00 14.5886 9.6424 0 
222 1 0.45 70.00 4.8256 7.9711 0 
223 1 0.48 70.00 23.1372 2.9756 0 
224 1 0.54 70.00 6.2058 21.3777 0 
225 1 0.48 70.00 7.4395 13.8785 0 
226 1 0.48 70.00 15.9221 16.1161 0 
227 1 0.51 70.00 14.5475 6.3736 0 
228 1 0.50 70.00 25.7816 2.2626 0 
229 1 0.50 70.00 16.5120 12.2259 0 
230 1 0.47 70.00 24.1517 14.0918 0 
231 1 0.49 70.00 14.7657 8.6044 0 
232 1 0.50 70.00 18.9296 9.3187 0 
233 1 0.40 70.00 11.8013 5.0440 0 
234 1 0.44 70.00 23.3752 10.8237 0 
235 1 0.46 70.00 3.3630 19.3735 0 
236 1 0.49 70.00 0.6307 11.2049 0 
237 1 0.49 70.00 19.9457 12.6956 0 
238 1 0.46 70.00 4.9373 15.8215 0 
239 1 0.47 70.00 13.1140 2.1337 0 
240 1 0.50 70.00 3.4124 6.9285 0 
241 1 0.49 70.00 15.1980 13.2785 0 
242 1 0.51 70.00 18.3133 21.0448 0 
243 1 0.49 70.00 6.8513 16.6834 0 
244 1 0.42 70.00 12.4862 7.2628 0 
245 1 0.53 70.00 19.2971 2.1584 0 
246 1 0.48 70.00 21.0625 19.3037 0 
247 1 0.43 70.00 5.7339 1.1371 0 
248 1 0.48 70.00 18.0757 4.4474 0 
249 1 0.52 70.00 12.5144 2.1904 0 
250 1 0.46 70.00 3.8312 5.7355 0 
251 1 0.46 70.00 10.1030 19.7746 0 
252 1 0.53 70.00 8.7566 5.5656 0 
253 1 0.50 70.00 9.3211 10.6312 0 
254 1 0.48 70.00 14.6523 4.8914 0 
255 1 0.43 70.00 4.1539 17.8957 0 
256 1 0.47 70.00 5.1304 5.1071 0 
257 1 0.49 70.00 27.2728 16.7747 0 
258 1 0.44 70.00 10.3275 21.2703 0 
259 1 0.43 70.00 10.3307 7.3195 0 
260 1 0.44 70.00 13.3636 12.5730 0 
261 1 0.47 70.00 19.9371 5.4252 0 
262 1 0.43 70.00 21.6959 13.8059 0 
263 1 0.50 70.00 24.7548 19.4633 0 
264 1 0.46 70.00 16.7144 5.5813 0 
265 1 0.49 70.00 24.1618 10.0476 0 
266 1 0.46 70.00 25.4928 4.5727 0 
267 1 0.52 70.00 1.1344 2.6802 0 
268 1 0.46 70.00 11.1260 20.6401 0 
269 1 0.45 70.00 19.4355 9.3831 0 
270 1 0.47 70.00 24.7633 9.4708 0 
271 1 0.48 70.00 23.2783 14.9118 0 
272 1 0.47 70.00 21.7091 9.3740 0 
273 1 0.45 70.00 10.8442 10.8826 0 
274 1 0.51 70.00 1.4441 10.2061 0 
275 1 0.48 70.00 5.2355 6.1629 0 
276 1 0.44 70.00 22.2699 10.4702 0 
277 1 0.50 70.00 26.9530 5.4297 0 
278 1 0.50 70.00 19.2926 4.3807 0 
279 1 0.46 70.00 4.5395 2.1006 0 
280 1 0.44 70.00 23.9638 2.5995 0 
281 1 0.51 70.00 1.4757 2.8536 0 
282 1 0.42 70.00 1.3950 16.6739 0 
283 1 0.45 70.00 19.9196 2.7793 0 
284 1 0.51 70.00 21.4344 20.7278 0 
285 1 0.50 70.00 8.9765 18.0487 0 
286 1 0.40 70.00 12.2306 17.1827 0 
287 1 0.51 70.00 16.8378 19.9349 0 
288 1 0.48 70.00 7.2235 5.7964 0 
289 1 0.48 70.00 3.2620 1.4323 0 
290 1 0.47 70.00 4.2709 12.9128 0 
291 1 0.47 70.00 11.0320 15.8777 0 
292 1 0.51 70.00 9.9632 3.5414 0 
293 1 0.43 70.00 5.3249 18.6809 0 
294 1 0.48 70.00 23.9693 10.2751 0 
295 1 0.54 70.00 2.4253 11.4758 0 
296 1 0.48 70.00 24.0862 0.8608 0 
297 1 0.48 70.00 3.4410 16.8896 0 
298 1 0.45 70.00 19.4659 18.5445 0 
299 1 0.52 70.00 10.1748 5.6208 0 
300 1 0.46 70.00 0.5936 7.4765 0 
301 1 0.50 70.00 13.5370 5.4959 0 
302 1 0.48 70.00 27.6965 19.0654 0 
303 1 0.48 70.00 12.1707 11.0441 0 
304 1 0.50 70.00 18.8238 3.3614 0 
305 1 0.44 70.00 10.3587 19.9855 0 
306 1 0.50 70.00 7.9971 19.7129 0 
307 1 0.45 70.00 27.2628 7.5372 0 
308 1 0.46 70.00 26.0237 13.5095 0 
309 1 0.46 70.00 2.0945 17.7550 0 
310 1 0.47 70.00 26.2771 12.6358 0 
311 1 0.47 70.00 6.3802 5.9794 0 
312 1 0.49 70.00 0.6043 15.1983 0 
313 1 0.46 70.00 16.8708 8.2031 0 
314 1 0.47 70.00 17.9299 13.7621 0 
315 1 0.48 70.00 20.0063 18.1589 0 
316 1 0.44 70.00 18.8247 7.7531 0 
317 1 0.45 70.00 14.8893 2.5638 0 
318 1 0.50 70.00 24.6601 17.4819 0 
319 1 0.39 70.00 10.7024 5.3855 0 
320 1 0.50 70.00 16.5544 2.2474 0 
321 1 0.54 70.00 2.8459 4.1531 0 
322 1 0.50 70.00 1.5860 0.6169 0 
323 1 0.47 70.00 2.9020 11.4892 0 
324 1 0.49 70.00 5.5612 5.5982 0 
325 1 0.47 70.00 0.7952 3.4889 0 
326 1 0.44 70.00 6.7925 8.5002 0 
327 1 0.47 70.00 6.5793 13.3068 0 
328 1 0.50 70.00 5.7456 7.8008 0 
329 1 0.46 70.00 9.4860 5.3333 0 
330 1 0.42 70.00 24.8819 1.6799 0 
331 1 0.52 70.00 17.4872 12.8433 0 
332 1 0.46 70.00 16.2177 2.4787 0 
333 1 0.43 70.00 11.8050 1.9696 0 
334 1 0.43 70.00 10.5275 9.3333 0 
335 1 0.48 70.00 9.4930 12.6739 0 
336 1 0.42 70.00 13.8177 12.6306 0 
337 1 0.46 70.00 1.6774 6.7383 0 
338 1 0.48 70.00 10.4497 19.3213 0 
339 1 0.45 70.00 7.5512 11.5660 0 
340 1 0.50 70.00 2.3073 17.9862 0 
341 1 0.52 70.00 7.5448 8.2218 0 
342 1 0.46 70.00 20.3950 5.5332 0 
343 1 0.47 70.00 26.4614 2.4397 0 
344 1 0.47 70.00 20.0079 6.9532 0 
345 1 0.43 70.00 11.3232 8.3314 0 
346 1 0.49 70.00 26.7882 0.8385 0 
347 1 0.54 70.00 18.3824 16.0900 0 
348 1 0.47 70.00 7.3982 11.9643 0 
349 1 0.49 70.00 5.7402 11.3982 0 
350 1 0.47 70.00 24.4896 10.9072 0 
351 1 0.49 70.00 18.2595 11.8384 0 
352 1 0.46 70.00 13.7839 20.0936 0 
353 1 0.45 70.00 4.4616 15.8017 0 
354 1 0.48 70.00 6.5139 1.4740 0 
355 1 0.47 70.00 14.9673 9.1206 0 
356 1 0.47 70.00 23.5673 20.2309 0 
357 1 0.51 70.00 20.0954 15.4765 0 
358 1 0.48 70.00 0.6385 4.4875 0 
359 1 0.50 70.00 21.6339 12.0604 0 
360 1 0.45 70.00 15.0974 12.4170 0 
361 1 0.47 70.00 13.1559 17.1233 0 
362 1 0.48 70.00 3.7538 6.6251 0 
363 1 0.49 70.00 5.8096 15.6384 0 
364 1 0.43 70.00 12.5312 3.4318 0 
365 1 0.44 70.00 6.4023 9.3736 0 
366 1 0.48 70.00 19.0139 1.6424 0 
367 1 0.44 70.00 4.5963 6.7220 0 
368 1 0.44 70.00 16.1452 5.2558 0 
369 1 0.49 70.00 23.5693 19.8179 0 
370 1 0.47 70.00 2.2815 15.8086 0 
371 1 0.48 70.00 10.8358 7.6766 0 
372 1 0.49 70.00 16.7096 16.6418 0 
373 1 0.50 70.00 25.4755 9.7718 0 
374 1 0.47 70.00 5.1434 21.1680 0 
375 1 0.48 70.00 4.5444 19.3046 0 
376 1 0.47 70.00 10.5274 17.8741 0 
377 1 0.48 70.00 5.4396 15.2306 0 
378 1 0.41 70.00 2.9931 5.3704 0 
379 1 0.44 70.00 26.2042 10.3780 0 
380 1 0.49 70.00 22.4345 20.4921 0 
381 1 0.46 70.00 20.3366 11.4939 0 
382 1 0.45 70.00 10.8620 10.5003 0 
383 1 0.48 70.00 4.8470 2.4425 0 
384 1 0.48 70.00 22.9233 4.7786 0 
385 1 0.44 70.00 16.6080 5.3793 0 
386 1 0.49 70.00 10.7618 6.6289 0 
387 1 0.48 70.00 25.0042 20.8016 0 
388 1 0.47 70.00 3.8801 18.3414 0 
389 1 0.45 70.00 7.6669 21.5080 0 
390 1 0.51 70.00 16.7199 14.0867 0 
391 1 0.44 70.00 27.1720 6.5549 0 
392 1 0.46 70.00 19.2793 19.2261 0 
393 1 0.50 70.00 14.9692 18.9834 0 
394 1 0.45 70.00 7.9940 16.2678 0 
395 1 0.40 70.00 6.7621 4.6285 0 
396 1 0.44 70.00 24.1386 5.1875 0 
397 1 0.46 70.00 26.9376 10.8588 0 
398 1 0.54 70.00 16.2780 4.4697 0 
399 1 0.47 70.00 16.8839 3.9474 0 
400 1 0.51 70.00 22.4426 21.1162 0 
401 1 0.53 70.00 25.2733 6.3325 0 
402 1 0.50 70.00 17.2503 11.6852 0 
403 1 0.48 70.00 19.8935 19.0410 0 
404 1 0.45 70.00 24.8300 15.6800 0 
405 1 0.47 70.00 11.5310 16.1831 0 
406 1 0.46 70.00 9.8215 1.7401 0 
407 1 0.47 70.00 27.1747 12.4651 0 
408 1 0.49 70.00 27.5782 12.7300 0 
409 1 0.43 70.00 17.6012 18.5238 0 
410 1 0.45 70.00 1.4411 19.5689 0 
411 1 0.43 70.00 26.4327 6.8690 0 
412 1 0.43 70.00 24.4309 18.4948 0 
413 1 0.51 70.00 10.2210 9.6860 0 
414 1 0.44 70.00 7.4558 3.5873 0 
415 1 0.40 70.00 6.4699 8.2285 0 
416 1 0.41 70.00 4.6765 13.3796 0 
417 1 0.46 70.00 19.5798 0.5714 0 
418 1 0.47 70.00 8.0267 16.7291 0 
419 1 0.46 70.00 4.7226 6.2205 0 
420 1 0.45 70.00 10.1762 10.6797 0 
421 1 0.45 70.00 23.8663 16.6860 0 
422 1 0.43 70.00 10.0849 6.7140 0 
423 1 0.46 70.00 8.0352 5.8587 0 
424 1 0.50 70.00 2.1124 21.5835 0 
425 1 0.52 70.00 6.2182 11.5814 0 
426 1 0.48 70.00 20.7378 19.3706 0 
427 1 0.47 70.00 10.8494 16.9012 0 
428 1 0.49 70.00 7.1354 19.8261 0 
429 1 0.48 70.00 1.8025 5.6809 0 
430 1 0.48 70.00 20.1293 11.8358 0 
431 1 0.51 70.00 17.8819 16.4088 0 
432 1 0.47 70.00 13.4627 8.7064 0 
433 1 0.47 70.00 5.1922 12.0898 0 
434 1 0.47 70.00 5.2745 19.1676 0 
435 1 0.49 70.00 5.0168 0.9954 0 
436 1 0.45 70.00 25.9879 11.4522 0 
437 1 0.41 70.00 12.6359 19.0867 0 
438 1 0.39 70.00 19.3693 15.7509 0 
439 1 0.49 70.00 22.2268 15.7269 0 
440 1 0.50 70.00 26.1237 16.5299 0 
441 1 0.45 70.00 2.4250 2.8377 0 
442 1 0.43 70.00 15.8971 19.4238 0 
443 1 0.55 70.00 22.0064 21.3618 0 
444 1 0.47 70.00 20.5116 2.8103 0 
445 1 0.45 70.00 23.7940 11.4110 0 
446 1 0.49 70.00 25.1131 5.5030 0 
447 1 0.49 70.00 15.7499 13.9844 0 
448 1 0.47 70.00 18.9065 4.7375 0 
449 1 0.46 70.00 18.3136 16.6780 0 
450 1 0.44 70.00 17.5729 2.4205 0 
451 1 0.50 70.00 7.0511 13.5639 0 
452 1 0.52 70.00 16.0433 5.7891 0 
453 1 0.49 70.00 12.0099 3.1861 0 
454 1 0.49 70.00 13.5992 14.7604 0 
455 1 0.51 70.00 5.5395 17.2523 0 
456 1 0.52 70.00 20.1515 1.6133 0 
457 1 0.53 70.00 14.5063 6.1077 0 
458 1 0.46 70.00 2.5139 5.8056 0 
459 1 0.47 70.00 25.3686 1.3395 0 
460 1 0.46 70.00 16.9830 6.6105 0 
461 1 0.46 70.00 13.9495 18.1807 0 
462 1 0.45 70.00 8.0316 0.6892 0 
463 1 0.47 70.00 26.2994 2.1589 0 
464 1 0.44 70.00 1.2727 14.0222 0 
465 1 0.44 70.00 2.5779 15.4787 0 
466 1 0.43 70.00 18.4125 1.3980 0 
467 1 0.47 70.00 2.1317 7.1054 0 
468 1 0.45 70.00 19.4689 13.2060 0 
469 1 0.43 70.00 3.9247 17.3252 0 
470 1 0.45 70.00 12.6788 18.3012 0 
471 1 0.44 70.00 23.8527 14.0605 0 
472 1 0.45 70.00 12.3918 20.7638 0 
473 1 0.51 70.00 1.0738 9.4516 0 
474 1 0.50 70.00 20.7835 18.9806 0 
475 1 0.47 70.00 23.9772 9.6232 0 
476 1 0.47 70.00 26.3876 21.4930 0 
477 1 0.41 70.00 27.0588 1.2703 0 
478 1 0.50 70.00 3.7750 16.2077 0 
479 1 0.50 70.00 16.9771 9.7923 0 
480 1 0.41 70.00 22.4372 3.7193 0 
481 1 0.48 70.00 18.7400 21.2127 0 
482 1 0.47 70.00 20.2002 5.4605 0 
483 1 0.46 70.00 24.6744 1.8840 0 
484 1 0.48 70.00 23.4839 4.8096 0 
485 1 0.45 70.00 27.7665 1.4591 0 
486 1 0.52 70.00 23.1235 11.8543 0 
487 1 0.51 70.00 4.7558 10.9561 0 
488 1 0.46 70.00 12.9586 4.9091 0 
489 1 0.49 70.00 20.7150 11.4975 0 
490 1 0.52 70.00 11.0811 21.1082 0 
491 1 0.47 70.00 9.1853 12.2156 0 
492 1 0.53 70.00 7.7305 6.3874 0 
493 1 0.45 70.00 9.3079 11.3405 0 
494 1 0.50 70.00 15.6365 19.1305 0 
495 1 0.49 70.00 24.2461 17.3642 0 
496 1 0.48 70.00 1.2546 15.8537 0 
497 1 0.46 70.00 21.3069 19.9006 0 
498 1 0.52 70.00 8.4355 4.5271 0 
499 1 0.51 70.00 21.3859 18.3700 0 
500 1 0.49 70.00 18.2637 6.5582 0 
501 1 0.47 70.00 16.6115 19.5989 0 
502 1 0.50 70.00 8.2580 17.9979 0 
503 1 0.41 70.00 2.1897 11.4739 0 
504 1 0.48 70.00 2.7628 4.9094 0 
505 1 0.50 70.00 20.1407 4.9664 0 
506 1 0.48 70.00 20.9386 16.9350 0 
507 1 0.40 70.00 18.2968 7.6528 0 
508 1 0.48 70.00 8.7386 3.5420 0 
509 1 0.48 70.00 15.8624 3.2489 0 
510 1 0.46 70.00 4.1211 11.2135 0 
511 1 0.48 70.00 19.4497 3.3393 0 
512 1 0.51 70.00 7.2377 17.9523 0 
513 1 0.47 70.00 16.9429 6.1506 0 
514 1 0.50 70.00 11.3082 13.3001 0 
515 1 0.46 70.00 12.4607 18.5057 0 
516 1 0.44 70.00 2.4185 4.4894 0 
517 1 0.51 70.00 23.4458 16.8531 0 
518 1 0.43 70.00 12.8882 8.5009 0 
519 1 0.47 70.00 5.9690 17.7160 0 
520 1 0.44 70.00 8.5650 0.7737 0 
521 1 0.47 70.00 11.1351 14.9534 0 
522 1 0.50 70.00 20.9085 6.9624 0 
523 1 0.52 70.00 2.9786 4.9922 0 
524 1 0.47 70.00 20.5229 17.1941 0 
525 1 0.46 70.00 19.8187 4.5831 0 
526 1 0.48 70.00 23.4846 20.7980 0 
527 1 0.47 70.00 19.4049 10.8812 0 
528 1 0.43 70.00 13.9092 9.3716 0 
529 1 0.51 70.00 14.5982 7.7468 0 
530 1 0.44 70.00 12.2815 13.1729 0 
531 1 0.40 70.00 26.6053 10.8714 0 
532 1 0.54 70.00 4.7693 9.2861 0 
533 1 0.50 70.00 9.8548 20.1432 0 
534 1 0.45 70.00 22.2837 10.0745 0 
535 1 0.48 70.00 14.4669 10.1183 0 
536 1 0.47 70.00 10.9290 4.0707 0 
537 1 0.50 70.00 4.4269 20.0175 0 
538 1 0.53 70.00 19.5812 8.3538 0 
539 1 0.43 70.00 4.9062 5.2240 0 
540 1 0.46 70.00 27.5519 12.9883 0 
541 1 0.39 70.00 3.5654 12.4824 0 
542 1 0.46 70.00 19.2771 0.5003 0 
543 1 0.41 70.00 14.6764 1.7191 0 
544 1 0.52 70.00 16.8427 8.8335 0 
545 1 0.52 70.00 26.2761 9.8782 0 
546 1 0.48 70.00 14.8744 13.3492 0 
547 1 0.48 70.00 24.8894 13.3274 0 
548 1 0.48 70.00 13.5881 2.2574 0 
549 1 0.41 70.00 19.6000 11.1950 0 
550 1 0.46 70.00 23.5549 7.7402 0 
551 1 0.41 70.00 19.2393 5.4734 0 
552 1 0.47 70.00 27.5413 12.0817 0 
553 1 0.43 70.00 3.5768 4.7964 0 
554 1 0.44 70.00 2.6596 18.1199 0 
555 1 0.51 70.00 16.8175 7.6004 0 
556 1 0.48 70.00 0.9181 21.3009 0 
557 1 0.48 70.00 14.8657 3.7787 0 
558 1 0.47 70.00 9.1597 1.6649 0 
559 1 0.44 70.00 10.8770 8.9767 0 
560 1 0.50 70.00 27.3674 20.6499 0 
561 1 0.43 70.00 5.9692 6.5609 0 
562 1 0.46 70.00 2.8845 11.7225 0 
563 1 0.46 70.00 17.5152 13.3586 0 
564 1 0.49 70.00 20.5530 6.9731 0 
565 1 0.48 70.00 25.0058 16.1285 0 
566 1 0.48 70.00 4.5358 18.0222 0 
567 1 0.45 70.00 18.0724 14.2904 0 
568 1 0.48 70.00 2.1315 16.2594 0 
569 1 0.48 70.00 10.4284 8.1120 0 
570 1 0.51 70.00 6.9101 19.7883 0 
571 1 0.50 70.00 0.5596 20.8990 0 
572 1 0.42 70.00 21.6467 4.3114 0 
573 1 0.48 70.00 18.5769 2.9863 0 
574 1 0.47 70.00 18.2553 17.8219 0 
575 1 0.43 70.00 24.0954 16.8881 0 
576 1 0.44 70.00 27.3681 17.5945 0 
577 1 0.50 70.00 20.8462 6.4974 0 
578 1 0.49 70.00 19.0423 20.8081 0 
579 1 0.50 70.00 16.0500 19.5703 0 
580 1 0.50 70.00 1.8893 10.2285 0 
581 1 0.45 70.00 0.9498 19.5842 0 
582 1 0.52 70.00 9.1116 6.9278 0 
583 1 0.52 70.00 9.7993 10.0358 0 
584 1 0.46 70.00 2.9547 20.2166 0 
585 1 0.46 70.00 14.6192 5.6405 0 
586 1 0.50 70.00 19.5259 10.3309 0 
587 1 0.51 70.00 13.0755 7.0901 0 
588 1 0.47 70.00 18.6757 10.3582 0 
589 1 0.49 70.00 19.6508 20.8645 0 
590 1 0.45 70.00 14.2157 3.3843 0 
591 1 0.44 70.00 19.2294 13.8613 0 
592 1 0.50 70.00 27.7229 5.3350 0 
593 1 0.46 70.00 16.4642 11.3455 0 
594 1 0.46 70.00 22.3486 16.7828 0 
595 1 0.46 70.00 8.2338 14.1189 0 
596 1 0.44 70.00 22.6117 15.9111 0 
597 1 0.46 70.00 9.5804 9.8903 0 
598 1 0.46 70.00 2.4100 14.4607 0 
599 1 0.49 70.00 3.6388 3.2880 0 
600 1 0.50 70.00 11.0794 18.1122 0 
601 1 0.42 70.00 11.1229 16.3455 0 
602 1 0.46 70.00 18.4743 18.1701 0 
603 1 0.49 70.00 17.0022 15.9794 0 
604 1 0.46 70.00 23.5827 18.2654 0 
605 1 0.43 70.00 1.7732 0.8747 0 
606 1 0.46 70.00 3.2357 9.1867 0 
607 1 0.44 70.00 12.8722 10.2294 0 
608 1 0.42 70.00 11.9178 8.9992 0 
609 1 0.48 70.00 10.9185 0.6947 0 
610 1 0.47 70.00 13.9913 12.4680 0 
611 1 0.45 70.00 2.0136 16.8259 0 
612 1 0.50 70.00 2.1732 6.3173 0 
613 1 0.46 70.00 6.3813 14.1577 0 
614 1 0.48 70.00 18.1264 1.2834 0 
615 1 0.42 70.00 13.9654 20.2900 0 
616 1 0.46 70.00 17.8236 15.3968 0 
617 1 0.51 70.00 4.2004 1.6014 0 
618 1 0.47 70.00 13.3089 16.2726 0 
619 1 0.46 70.00 18.3988 6.0195 0 
620 1 0.50 70.00 4.1995 15.9258 0 
621 1 0.50 70.00 16.4296 14.1239 0 
622 1 0.42 70.00 10.6594 16.9944 0 
623 1 0.45 70.00 25.7385 19.6961 0 
624 1 0.47 70.00 7.6638 20.0204 0 
625 1 0.46 70.00 20.1356 14.2728 0 
626 1 0.46 70.00 12.7688 10.9060 0 
627 1 0.51 70.00 23.0864 3.6674 0 
628 1 0.43 70.00 1.4415 14.7066 0 
629 1 0.50 70.00 20.0200 9.9624 0 
630 1 0.47 70.00 16.5562 15.7717 0 
631 1 0.48 70.00 22.2807 7.3536 0 
632 1 0.47 70.00 5.4555 10.9714 0 
633 1 0.48 70.00 5.5573 16.6378 0 
634 1 0.47 70.00 5.5704 11.8302 0 
635 1 0.50 70.00 11.2797 19.7365 0 
636 1 0.47 70.00 5.4357 21.6551 0 
637 1 0.50 70.00 7.3615 7.8025 0 
638 1 0.47 70.00 1.6289 3.2987 0 
639 1 0.48 70.00 0.9253 2.9497 0 
640 1 0.42 70.00 4.9076 18.1770 0 
641 1 0.48 70.00 18.0899 2.7436 0 
642 1 0.46 70.00 10.5012 16.0049 0 
643 1 0.46 70.00 18.8644 9.7156 0 
644 1 0.47 70.00 8.8124 10.0429 0 
645 1 0.54 70.00 13.3096 2.9511 0 
646 1 0.48 70.00 12.3533 12.2446 0 
647 1 0.50 70.00 27.0417 4.3900 0 
648 1 0.49 70.00 0.7232 2.6354 0 
649 1 0.46 70.00 1.2974 10.8718 0 
650 1 0.45 70.00 19.2355 15.4594 0 
651 1 0.44 70.00 15.6190 18.3649 0 
652 1 0.52 70.00 3.7244 2.2812 0 
653 1 0.45 70.00 6.4132 8.0225 0 
654 1 0.48 70.00 17.3983 3.3851 0 
655 1 0.41 70.00 14.7179 11.1534 0 
656 1 0.48 70.00 23.4803 16.1904 0 
657 1 0.45 70.00 10.9632 4.4037 0 
658 1 0.46 70.00 13.1525 21.4314 0 
659 1 0.42 70.00 20.6463 20.6242 0 
660 1 0.44 70.00 1.3517 21.2735 0 
661 1 0.52 70.00 12.4771 10.3725 0 
662 1 0.44 70.00 12.0144 7.7034 0 
663 1 0.49 70.00 1.4136 8.8087 0 
664 1 0.46 70.00 22.4349 16.1436 0 
665 1 0.46 70.00 7.9837 1.6280 0 
666 1 0.44 70.00 7.1133 8.3588 0 
667 1 0.47 70.00 10.4842 14.1219 0 
668 1 0.49 70.00 19.7740 10.4474 0 
669 1 0.45 70.00 16.7630 15.4028 0 
670 1 0.46 70.00 22.6593 11.7890 0 
671 1 0.39 70.00 11.2530 14.7918 0 
672 1 0.40 70.00 0.5371 9.7348 0 
673 1 0.48 70.00 21.3695 1.8691 0 
674 1 0.47 70.00 7.0873 16.6508 0 
675 1 0.44 70.00 11.1814 16.7771 0 
676 1 0.56 70.00 23.6566 20.6391 0 
677 1 0.48 70.00 19.8071 5.7326 0 
678 1 0.45 70.00 8.3887 10.5992 0 
679 1 0.50 70.00 7.2346 4.0784 0 
680 1 0.45 70.00 18.2106 19.5282 0 
681 1 0.45 70.00 22.0767 6.1559 0 
682 1 0.49 70.00 15.2095 15.2997 0 
683 1 0.39 70.00 18.7426 18.8720 0 
684 1 0.52 70.00 22.7951 9.5605 0 
685 1 0.47 70.00 10.6791 15.2199 0 
686 1 0.45 70.00 1.4323 1.7701 0 
687 1 0.46 70.00 17.4902 16.2272 0 
688 1 0.48 70.00 9.3052 18.1579 0 
689 1 0.47 70.00 17.0191 18.0349 0 
690 1 0.50 70.00 23.6761 10.5869 0 
691 1 0.50 70.00 17.8939 3.2770 0 
692 1 0.46 70.00 12.9492 5.5896 0 
693 1 0.44 70.00 9.7032 20.5578 0 
694 1 0.45 70.00 1.5626 20.0535 0 
695 1 0.48 70.00 14.6232 10.5864 0 
696 1 0.48 70.00 4.2686 11.5129 0 
697 1 0.47 70.00 22.5183 17.8516 0 
698 1 0.46 70.00 16.4858 17.9129 0 
699 1 0.47 70.00 21.8136 19.5354 0 
700 1 0.43 70.00 14.9291 20.7917 0 
701 1 0.48 70.00 0.9906 15.7464 0 
702 1 0.49 70.00 21.4949 18.7785 0 
703 1 0.45 70.00 14.8310 19.4894 0 
704 1 0.48 70.00 16.4785 1.1042 0 
705 1 0.50 70.00 1.0350 12.4468 0 
706 1 0.48 70.00 16.4500 17.2470 0 
707 1 0.42 70.00 5.1922 2.1739 0 
708 1 0.52 70.00 22.4836 14.3037 0 
709 1 0.47 70.00 11.8164 20.6264 0 
710 1 0.51 70.00 15.0109 10.0800 0 
711 1 0.44 70.00 24.0595 15.5104 0 
712 1 0.52 70.00 25.2740 16.2588 0 
713 1 0.46 70.00 23.3948 3.0629 0 
714 1 0.51 70.00 4.4118 19.5996 0 
715 1 0.39 70.00 4.0259 10.2136 0 
716 1 0.48 70.00 5.7212 5.9651 0 
717 1 0.47 70.00 8.0517 6.5645 0 
718 1 0.51 70.00 2.2675 11.0502 0 
719 1 0.44 70.00 3.5078 0.9310 0 
720 1 0.46 70.00 19.6821 18.2334 0 
721 1 0.53 70.00 11.1547 10.6541 0 
722 1 0.53 70.00 18.1411 11.5578 0 
723 1 0.51 70.00 12.8758 15.2894 0 
724 1 0.47 70.00 15.8967 13.7877 0 
725 1 0.47 70.00 3.0506 13.8743 0 
726 1 0.47 70.00 18.1807 10.6810 0 
727 1 0.47 70.00 20.5374 1.4625 0 
728 1 0.47 70.00 2.0804 1.3810 0 
729 1 0.44 70.00 16.4525 7.7246 0 
730 1 0.48 70.00 6.2517 4.5849 0 
731 1 0.50 70.00 19.0216 13.9950 0 
732 1 0.48 70.00 1.7655 5.8869 0 
733 1 0.42 70.00 6.6958 6.5416 0 
734 1 0.45 70.00 26.1731 14.3634 0 
735 1 0.53 70.00 22.6115 10.8942 0 
736 1 0.44 70.00 12.0114 2.8357 0 
737 1 0.53 70.00 5.1405 20.7237 0 
738 1 0.53 70.00 16.2228 17.5542 0 
739 1 0.48 70.00 26.3805 16.6224 0 
740 1 0.47 70.00 14.6308 21.6985 0 
741 1 0.47 70.00 6.5408 10.6913 0 
742 1 0.49 70.00 25.7397 17.2202 0 
743 1 0.45 70.00 3.7363 4.6313 0 
744 1 0.42 70.00 6.1723 18.8793 0 
745 1 0.45 70.00 22.3855 7.0239 0 
746 1 0.44 70.00 11.0859 9.7198 0 
747 1 0.47 70.00 11.3592 7.5472 0 
748 1 0.42 70.00 21.2916 16.0307 0 
749 1 0.45 70.00 1.2989 1.2681 0 
750 1 0.43 70.00 25.0256 18.7576 0 
751 1 0.48 70.00 14.0643 11.7180 0 
752 1 0.52 70.00 7.3872 19.3393 0 
753 1 0.48 70.00 25.6073 8.3235 0 
754 1 0.48 70.00 12.6472 1.4133 0 
755 1 0.49 70.00 7.9133 7.6515 0 
756 1 0.44 70.00 8.7171 17.1429 0 
757 1 0.48 70.00 13.8553 3.7719 0 
758 1 0.49 70.00 5.7226 12.4939 0 
759 1 0.50 70.00 23.9940 18.1590 0 
760 1 0.43 70.00 13.9301 21.1439 0 
761 1 0.48 70.00 16.7683 2.1746 0 
762 1 0.50 70.00 27.4482 20.0281 0 
763 1 0.48 70.00 0.5039 11.7148 0 
764 1 0.52 70.00 4.7247 16.8670 0 
765 1 0.48 70.00 26.8777 13.5490 0 
766 1 0.46 70.00 27.4553 21.6118 0 
767 1 0.48 70.00 11.5017 16.6378 0 
768 1 0.48 70.00 1.1665 9.6579 0 
769 1 0.48 70.00 3.8374 2.4657 0 
770 1 0.50 70.00 13.0099 15.9467 0 
771 1 0.42 70.00 7.1203 4.9996 0 
772 1 0.48 70.00 19.3361 8.9034 0 
773 1 0.47 70.00 25.7252 4.1052 0 
774 1 0.49 70.00 11.4190 6.8452 0 
775 1 0.44 70.00 16.7209 4.7628 0 
776 1 0.50 70.00 10.0892 11.1443 0 
777 1 0.50 70.00 20.2871 6.9799 0 
778 1 0.44 70.00 6.5734 3.2961 0 
779 1 0.46 70.00 1.6658 14.6737 0 
780 1 0.54 70.00 12.3372 21.2042 0 
781 1 0.47 70.00 8.1006 12.0180 0 
782 1 0.43 70.00 26.5195 5.0734 0 
783 1 0.47 70.00 19.4394 4.5833 0 
784 1 0.49 70.00 21.1860 15.8362 0 
785 1 0.46 70.00 21.5624 20.9087 0 
786 1 0.44 70.00 3.9491 15.9535 0 
787 1 0.46 70.00 18.6144 1.2785 0 
788 1 0.46 70.00 19.0045 20.0021 0 
789 1 0.41 70.00 24.1827 15.6692 0 
790 1 0.50 70.00 9.3647 18.6355 0 
791 1 0.49 70.00 15.0606 15.7144 0 
792 1 0.47 70.00 18.1404 4.1734 0 
793 1 0.43 70.00 19.7006 9.8988 0 
794 1 0.45 70.00 18.3090 8.0088 0 
795 1 0.44 70.00 23.7142 19.1294 0 
796 1 0.53 70.00 25.3055 3.8768 0 
797 1 0.50 70.00 19.3127 4.8024 0 
798 1 0.42 70.00 16.3840 18.4408 0 
799 1 0.50 70.00 10.3113 15.7855 0 
800 1 0.42 70.00 7.4886 1.7986 0 
801 1 0.55 70.00 26.6535 17.5278 0 
802 1 0.49 70.00 27.4736 5.0556 0 
803 1 0.46 70.00 21.9430 3.4554 0 
804 1 0.47 70.00 10.2372 1.0472 0 
805 1 0.47 70.00 19.7771 19.3596 0 
806 1 0.50 70.00 24.3557 0.9938 0 
807 1 0.47 70.00 10.7793 16.3292 0 
808 1 0.47 70.00 11.1211 15.4731 0 
809 1 0.50 70.00 23.9875 12.5179 0 
810 1 0.42 70.00 23.7684 1.8795 0 
811 1 0.53 70.00 1.4469 5.8146 0 
812 1 0.51 70.00 13.6081 17.0281 0 
813 1 0.46 70.00 13.3506 8.0867 0 
814 1 0.46 70.00 14.7066 7.4507 0 
815 1 0.51 70.00 8.2231 10.4450 0 
816 1 0.47 70.00 24.3849 13.6187 0 
817 1 0.45 70.00 15.7296 9.2519 0 
818 1 0.46 70.00 12.0495 7.0573 0 
819 1 0.50 70.00 0.5174 20.3510 0 
820 1 0.44 70.00 5.0013 16.2545 0 
821 1 0.47 70.00 8.8000 7.4188 0 
822 1 0.48 70.00 20.7639 8.0371 0 
823 1 0.45 70.00 17.1374 20.1187 0 
824 1 0.48 70.00 7.0462 8.1163 0 
825 1 0.50 70.00 27.1280 20.9271 0 
826 1 0.48 70.00 20.2464 4.3844 0 
827 1 0.43 70.00 23.0102 13.9509 0 
828 1 0.44 70.00 9.9388 14.5288 0 
829 1 0.43 70.00 3.7942 11.0915 0 
830 1 0.50 70.00 8.1104 1.2211 0 
831 1 0.53 70.00 5.7591 3.7352 0 
832 1 0.51 70.00 14.0072 15.9347 0 
833 1 0.48 70.00 2.6187 19.3194 0 
834 1 0.45 70.00 1.1202 1.6482 0 
835 1 0.50 70.00 1.9102 7.7078 0 
836 1 0.49 70.00 9.4952 4.6968 0 
837 1 0.48 70.00 24.3579 2.7898 0 
838 1 0.49 70.00 13.4706 1.9590 0 
839 1 0.43 70.00 2.8428 3.5978 0 
840 1 0.51 70.00 26.5754 15.9508 0 
841 1 0.49 70.00 14.4817 19.6730 0 
842 1 0.48 70.00 10.7505 1.8149 0 
843 1 0.52 70.00 6.4124 5.7307 0 
844 1 0.52 70.00 14.3725 4.2631 0 
845 1 0.49 70.00 25.5843 6.8864 0 
846 1 0.44 70.00 20.0176 16.0747 0 
847 1 0.46 70.00 12.8635 7.0696 0 
848 1 0.47 70.00 8.8533 4.4390 0 
849 1 0.50 70.00 11.7781 8.5686 0 
850 1 0.44 70.00 7.2161 21.6461 0 
851 1 0.47 70.00 8.5268 6.0174 0 