# LAMMPS data file for rigid bodies

3696 atoms

2 atom types

0.0 	 28.0 	 xlo xhi 
0.0 	 22.0 	 ylo yhi 
-1.0 	 1.0 	 zlo zhi 

Atoms

1 1 0.45 70.00 22.1521 3.7610 0 
2 1 0.45 70.00 11.5797 16.1848 0 
3 1 0.44 70.00 14.9461 9.6634 0 
4 1 0.51 70.00 8.6175 5.0034 0 
5 1 0.49 70.00 17.3696 20.6625 0 
6 1 0.49 70.00 9.2075 1.9708 0 
7 1 0.50 70.00 7.0141 13.4964 0 
8 1 0.45 70.00 5.8625 7.8345 0 
9 1 0.47 70.00 15.2651 8.8849 0 
10 1 0.45 70.00 19.9642 0.6690 0 
11 1 0.50 70.00 18.7756 8.3119 0 
12 1 0.48 70.00 13.0273 6.2416 0 
13 1 0.47 70.00 4.1285 2.9745 0 
14 1 0.44 70.00 24.4416 13.2382 0 
15 1 0.47 70.00 15.5834 8.6501 0 
16 1 0.51 70.00 19.7874 5.6593 0 
17 1 0.46 70.00 21.4030 1.6548 0 
18 1 0.44 70.00 17.2410 15.3242 0 
19 1 0.41 70.00 15.6312 16.5491 0 
20 1 0.50 70.00 12.7258 17.0294 0 
21 1 0.50 70.00 1.5472 6.9718 0 
22 1 0.46 70.00 19.5620 13.9046 0 
23 1 0.50 70.00 25.8452 5.3751 0 
24 1 0.48 70.00 8.4122 2.7512 0 
25 1 0.50 70.00 22.6850 15.3086 0 
26 1 0.47 70.00 23.5346 12.4111 0 
27 1 0.46 70.00 19.0415 6.5235 0 
28 1 0.48 70.00 22.0861 6.7494 0 
29 1 0.45 70.00 27.3936 8.3795 0 
30 1 0.49 70.00 4.0262 9.5409 0 
31 1 0.47 70.00 19.9690 20.6040 0 
32 1 0.47 70.00 18.4103 2.7125 0 
33 1 0.43 70.00 15.9067 7.9677 0 
34 1 0.46 70.00 22.5754 7.8358 0 
35 1 0.48 70.00 17.6032 11.4253 0 
36 1 0.42 70.00 1.0806 5.5306 0 
37 1 0.45 70.00 17.9960 12.1132 0 
38 1 0.45 70.00 2.0607 12.5553 0 
39 1 0.44 70.00 4.5559 1.8210 0 
40 1 0.51 70.00 10.9102 14.0229 0 
41 1 0.49 70.00 18.4303 11.1347 0 
42 1 0.46 70.00 10.9869 15.5754 0 
43 1 0.49 70.00 15.9139 20.1190 0 
44 1 0.44 70.00 23.9604 19.8325 0 
45 1 0.50 70.00 23.0276 6.6425 0 
46 1 0.51 70.00 6.2163 1.9901 0 
47 1 0.52 70.00 6.1326 13.8035 0 
48 1 0.47 70.00 15.7898 4.0867 0 
49 1 0.51 70.00 25.3229 7.6611 0 
50 1 0.44 70.00 26.1451 6.2207 0 
51 1 0.43 70.00 9.7087 21.7558 0 
52 1 0.47 70.00 2.6883 3.2190 0 
53 1 0.47 70.00 27.3844 8.7582 0 
54 1 0.46 70.00 17.4402 17.4312 0 
55 1 0.46 70.00 18.1767 21.3862 0 
56 1 0.46 70.00 26.7920 14.1752 0 
57 1 0.51 70.00 14.7061 11.6837 0 
58 1 0.48 70.00 10.8141 11.3777 0 
59 1 0.49 70.00 18.6796 4.2785 0 
60 1 0.47 70.00 13.6683 14.7445 0 
61 1 0.45 70.00 24.5935 9.5017 0 
62 1 0.49 70.00 16.0378 10.5436 0 
63 1 0.47 70.00 25.7794 9.7578 0 
64 1 0.48 70.00 10.5864 3.7832 0 
65 1 0.44 70.00 14.9142 18.5173 0 
66 1 0.49 70.00 13.7358 17.0236 0 
67 1 0.50 70.00 26.7992 5.9261 0 
68 1 0.44 70.00 21.4086 2.7716 0 
69 1 0.47 70.00 13.0874 9.3187 0 
70 1 0.47 70.00 16.6906 4.9897 0 
71 1 0.50 70.00 1.6655 18.3058 0 
72 1 0.43 70.00 15.1794 17.7283 0 
73 1 0.45 70.00 14.9536 4.7922 0 
74 1 0.50 70.00 7.9827 11.2768 0 
75 1 0.44 70.00 23.1051 8.6766 0 
76 1 0.49 70.00 2.0253 19.1919 0 
77 1 0.50 70.00 21.9703 9.7906 0 
78 1 0.47 70.00 9.1825 17.9597 0 
79 1 0.44 70.00 6.8929 19.2101 0 
80 1 0.50 70.00 1.2888 5.6860 0 
81 1 0.51 70.00 26.2409 17.5173 0 
82 1 0.45 70.00 9.5983 19.3049 0 
83 1 0.42 70.00 21.7939 5.5392 0 
84 1 0.43 70.00 2.8592 15.0921 0 
85 1 0.46 70.00 11.2993 19.3641 0 
86 1 0.50 70.00 25.7636 14.1276 0 
87 1 0.39 70.00 17.6457 5.4150 0 
88 1 0.43 70.00 0.5420 16.9114 0 
89 1 0.47 70.00 17.8858 2.1827 0 
90 1 0.49 70.00 17.2628 1.6473 0 
91 1 0.55 70.00 2.9076 0.9622 0 
92 1 0.53 70.00 11.9122 6.9051 0 
93 1 0.44 70.00 6.0437 4.2285 0 
94 1 0.46 70.00 25.3683 0.9708 0 
95 1 0.44 70.00 3.1484 12.7271 0 
96 1 0.44 70.00 10.5758 2.3965 0 
97 1 0.50 70.00 5.0781 4.2018 0 
98 1 0.46 70.00 26.5000 18.6214 0 
99 1 0.51 70.00 9.4032 11.9924 0 
100 1 0.52 70.00 11.1220 19.9876 0 
101 1 0.44 70.00 13.5906 3.6048 0 
102 1 0.44 70.00 3.9311 14.3539 0 
103 1 0.47 70.00 13.8801 20.3758 0 
104 1 0.46 70.00 24.6822 17.2001 0 
105 1 0.44 70.00 14.9770 3.1603 0 
106 1 0.47 70.00 11.3213 12.9631 0 
107 1 0.45 70.00 9.4092 11.0335 0 
108 1 0.42 70.00 7.7209 14.4365 0 
109 1 0.51 70.00 18.0811 12.7583 0 
110 1 0.51 70.00 13.5493 17.2184 0 
111 1 0.49 70.00 6.0870 8.2779 0 
112 1 0.45 70.00 23.5477 21.4970 0 
113 1 0.48 70.00 22.2801 8.9167 0 
114 1 0.42 70.00 21.5264 20.7309 0 
115 1 0.49 70.00 14.3680 18.6805 0 
116 1 0.48 70.00 1.4017 19.1849 0 
117 1 0.48 70.00 6.2019 5.6359 0 
118 1 0.52 70.00 19.4585 7.7497 0 
119 1 0.48 70.00 5.7257 20.5911 0 
120 1 0.46 70.00 5.2424 21.1320 0 
121 1 0.46 70.00 25.0491 7.0315 0 
122 1 0.51 70.00 11.6785 4.7103 0 
123 1 0.40 70.00 24.6192 4.1187 0 
124 1 0.45 70.00 2.3961 8.6444 0 
125 1 0.44 70.00 25.6784 18.1732 0 
126 1 0.48 70.00 20.9078 2.1269 0 
127 1 0.52 70.00 22.2359 4.3552 0 
128 1 0.47 70.00 13.4669 6.8893 0 
129 1 0.48 70.00 24.9782 0.8119 0 
130 1 0.49 70.00 8.5550 14.9847 0 
131 1 0.41 70.00 9.6604 9.1493 0 
132 1 0.48 70.00 0.7775 12.6598 0 
133 1 0.49 70.00 5.4745 2.0477 0 
134 1 0.47 70.00 18.8766 14.1156 0 
135 1 0.48 70.00 24.2811 13.5814 0 
136 1 0.47 70.00 3.1126 1.6121 0 
137 1 0.46 70.00 17.0426 18.8135 0 
138 1 0.50 70.00 8.8161 6.2991 0 
139 1 0.49 70.00 6.4672 5.5915 0 
140 1 0.47 70.00 5.4587 6.8936 0 
141 1 0.51 70.00 20.5541 17.7965 0 
142 1 0.46 70.00 20.3529 17.5349 0 
143 1 0.53 70.00 8.3036 15.0486 0 
144 1 0.51 70.00 18.6866 1.3701 0 
145 1 0.47 70.00 1.3193 18.0177 0 
146 1 0.48 70.00 21.7472 9.9791 0 
147 1 0.50 70.00 25.3610 2.1751 0 
148 1 0.44 70.00 15.9940 21.7971 0 
149 1 0.48 70.00 13.5806 12.6678 0 
150 1 0.46 70.00 23.8405 10.7569 0 
151 1 0.49 70.00 21.1031 8.9259 0 
152 1 0.47 70.00 16.2193 0.7460 0 
153 1 0.45 70.00 9.9947 3.1011 0 
154 1 0.44 70.00 0.9780 13.3013 0 
155 1 0.49 70.00 14.2636 7.7184 0 
156 1 0.47 70.00 3.2091 9.6443 0 
157 1 0.44 70.00 24.6172 16.4846 0 
158 1 0.44 70.00 10.7141 13.2024 0 
159 1 0.47 70.00 6.9468 13.1668 0 
160 1 0.51 70.00 0.6584 3.3291 0 
161 1 0.51 70.00 13.3780 19.9778 0 
162 1 0.43 70.00 17.7191 16.9724 0 
163 1 0.44 70.00 25.2206 8.8584 0 
164 1 0.42 70.00 15.1209 1.4404 0 
165 1 0.52 70.00 21.8489 13.9503 0 
166 1 0.48 70.00 21.7494 13.5041 0 
167 1 0.44 70.00 10.6803 9.1526 0 
168 1 0.47 70.00 2.0110 19.7470 0 
169 1 0.47 70.00 2.9742 19.7184 0 
170 1 0.46 70.00 20.7077 17.3608 0 
171 1 0.53 70.00 2.3859 3.3774 0 
172 1 0.44 70.00 2.5667 7.2173 0 
173 1 0.46 70.00 3.7403 10.9027 0 
174 1 0.43 70.00 23.8243 3.6602 0 
175 1 0.49 70.00 11.1760 4.6145 0 
176 1 0.49 70.00 26.0399 19.4052 0 
177 1 0.51 70.00 12.8511 7.2712 0 
178 1 0.45 70.00 6.1906 8.5422 0 
179 1 0.46 70.00 17.0671 2.4132 0 
180 1 0.46 70.00 5.3641 14.6940 0 
181 1 0.43 70.00 17.2978 2.7116 0 
182 1 0.48 70.00 16.9354 9.8808 0 
183 1 0.49 70.00 6.3459 4.8630 0 
184 1 0.51 70.00 5.2284 15.3247 0 
185 1 0.47 70.00 19.2670 8.9243 0 
186 1 0.49 70.00 25.1024 6.0524 0 
187 1 0.46 70.00 16.1505 0.9491 0 
188 1 0.47 70.00 10.8333 7.2560 0 
189 1 0.50 70.00 16.3523 19.0315 0 
190 1 0.44 70.00 21.3052 9.7899 0 
191 1 0.47 70.00 24.2099 5.0852 0 
192 1 0.50 70.00 7.0417 1.3679 0 
193 1 0.43 70.00 10.3495 21.5754 0 
194 1 0.51 70.00 1.5356 8.3300 0 
195 1 0.46 70.00 18.1060 14.2592 0 
196 1 0.47 70.00 21.6592 7.9438 0 
197 1 0.48 70.00 11.6506 20.6133 0 
198 1 0.47 70.00 16.4479 20.2706 0 
199 1 0.44 70.00 8.8667 13.5755 0 
200 1 0.53 70.00 19.1263 16.1059 0 
201 1 0.46 70.00 24.9131 9.6727 0 
202 1 0.41 70.00 14.1768 13.6810 0 
203 1 0.44 70.00 6.8233 3.9652 0 
204 1 0.50 70.00 15.8526 11.0343 0 
205 1 0.44 70.00 26.8835 18.7311 0 
206 1 0.50 70.00 26.2127 6.0220 0 
207 1 0.48 70.00 2.1533 8.7457 0 
208 1 0.49 70.00 1.6546 19.7115 0 
209 1 0.46 70.00 8.0534 5.2571 0 
210 1 0.47 70.00 9.6092 5.8722 0 
211 1 0.46 70.00 25.6618 7.9216 0 
212 1 0.48 70.00 25.6357 13.0333 0 
213 1 0.46 70.00 25.6507 2.3763 0 
214 1 0.44 70.00 26.7476 11.1392 0 
215 1 0.49 70.00 20.7373 19.0504 0 
216 1 0.48 70.00 6.9871 2.5449 0 
217 1 0.46 70.00 25.7998 17.8807 0 
218 1 0.44 70.00 22.8095 2.0448 0 
219 1 0.46 70.00 27.4053 10.1667 0 
220 1 0.47 70.00 17.8254 6.4111 0 
221 1 0.50 70.00 16.8550 12.4289 0 
222 1 0.45 70.00 21.2874 1.4426 0 
223 1 0.47 70.00 4.8192 15.7973 0 
224 1 0.46 70.00 0.8958 18.6208 0 
225 1 0.49 70.00 9.3068 18.8522 0 
226 1 0.46 70.00 22.5300 5.3264 0 
227 1 0.48 70.00 13.3923 20.9083 0 
228 1 0.54 70.00 14.3085 2.7303 0 
229 1 0.48 70.00 12.8543 4.6918 0 
230 1 0.50 70.00 27.7052 6.8493 0 
231 1 0.45 70.00 1.3363 15.4071 0 
232 1 0.50 70.00 27.5191 19.6295 0 
233 1 0.46 70.00 3.6938 1.6880 0 
234 1 0.47 70.00 8.1312 8.6969 0 
235 1 0.48 70.00 16.5191 16.3499 0 
236 1 0.42 70.00 0.9267 11.9585 0 
237 1 0.47 70.00 12.9178 7.6129 0 
238 1 0.48 70.00 23.3236 19.8990 0 
239 1 0.43 70.00 10.5209 13.6519 0 
240 1 0.45 70.00 1.6581 10.6880 0 
241 1 0.47 70.00 11.4743 8.2661 0 
242 1 0.42 70.00 9.5137 18.1550 0 
243 1 0.49 70.00 22.9316 15.0247 0 
244 1 0.42 70.00 19.7635 17.4264 0 
245 1 0.50 70.00 11.7903 16.9699 0 
246 1 0.52 70.00 26.1539 10.1139 0 
247 1 0.51 70.00 10.8790 19.7808 0 
248 1 0.48 70.00 12.9871 13.6674 0 
249 1 0.47 70.00 13.6452 1.6913 0 
250 1 0.46 70.00 18.5188 16.4112 0 
251 1 0.45 70.00 11.7741 4.2254 0 
252 1 0.54 70.00 8.4765 15.4264 0 
253 1 0.50 70.00 11.2930 9.9164 0 
254 1 0.47 70.00 23.8044 1.6519 0 
255 1 0.51 70.00 4.2060 12.5429 0 
256 1 0.46 70.00 24.8163 5.8480 0 
257 1 0.46 70.00 22.6888 4.3077 0 
258 1 0.52 70.00 19.8780 1.1294 0 
259 1 0.47 70.00 8.6535 12.5305 0 
260 1 0.52 70.00 2.0387 1.8041 0 
261 1 0.42 70.00 11.0942 13.7600 0 
262 1 0.49 70.00 23.8724 17.3251 0 
263 1 0.46 70.00 4.3203 17.4487 0 
264 1 0.48 70.00 14.8451 8.7453 0 
265 1 0.47 70.00 11.2049 6.1870 0 
266 1 0.47 70.00 17.1765 14.6721 0 
267 1 0.44 70.00 15.8846 5.8849 0 
268 1 0.46 70.00 26.1225 16.5865 0 
269 1 0.46 70.00 9.8596 15.2715 0 
270 1 0.50 70.00 17.1132 18.1349 0 
271 1 0.49 70.00 8.8805 5.8544 0 
272 1 0.42 70.00 9.8777 5.7709 0 
273 1 0.49 70.00 24.4406 8.1266 0 
274 1 0.44 70.00 6.0062 12.9923 0 
275 1 0.45 70.00 23.9664 17.9916 0 
276 1 0.49 70.00 16.0861 1.1580 0 
277 1 0.51 70.00 17.3536 7.7173 0 
278 1 0.47 70.00 7.9112 21.6465 0 
279 1 0.47 70.00 13.4477 8.6112 0 
280 1 0.53 70.00 12.7871 12.9985 0 
281 1 0.49 70.00 4.2590 20.2890 0 
282 1 0.47 70.00 23.7455 17.6892 0 
283 1 0.44 70.00 24.8510 11.2657 0 
284 1 0.42 70.00 1.7207 12.1091 0 
285 1 0.43 70.00 20.7405 15.4020 0 
286 1 0.44 70.00 10.3441 19.1350 0 
287 1 0.51 70.00 17.8212 6.8224 0 
288 1 0.42 70.00 22.7073 2.9248 0 
289 1 0.43 70.00 1.4233 20.6189 0 
290 1 0.49 70.00 10.8307 9.9507 0 
291 1 0.45 70.00 4.9335 15.4031 0 
292 1 0.42 70.00 17.2162 20.1594 0 
293 1 0.53 70.00 4.2901 13.8860 0 
294 1 0.42 70.00 24.6125 7.3543 0 
295 1 0.47 70.00 3.7068 17.4062 0 
296 1 0.47 70.00 10.1284 10.7762 0 
297 1 0.49 70.00 9.0971 17.2976 0 
298 1 0.46 70.00 10.2013 5.5365 0 
299 1 0.50 70.00 4.3773 2.0510 0 
300 1 0.46 70.00 20.9299 13.0162 0 
301 1 0.54 70.00 12.1712 6.1150 0 
302 1 0.54 70.00 2.6537 15.9590 0 
303 1 0.50 70.00 15.1492 0.8438 0 
304 1 0.44 70.00 27.1072 19.0604 0 
305 1 0.48 70.00 14.2223 1.9297 0 
306 1 0.47 70.00 14.1502 17.1956 0 
307 1 0.46 70.00 27.0311 14.3153 0 
308 1 0.49 70.00 19.5256 9.5468 0 
309 1 0.49 70.00 18.5797 6.4915 0 
310 1 0.48 70.00 26.6796 13.5622 0 
311 1 0.53 70.00 22.9290 15.7142 0 
312 1 0.50 70.00 0.7846 19.6133 0 
313 1 0.46 70.00 6.1283 7.1888 0 
314 1 0.49 70.00 17.1640 11.6445 0 
315 1 0.48 70.00 3.1746 1.2531 0 
316 1 0.50 70.00 4.4125 0.6524 0 
317 1 0.48 70.00 5.9339 19.6378 0 
318 1 0.48 70.00 24.1163 6.3496 0 
319 1 0.42 70.00 7.9310 20.1366 0 
320 1 0.46 70.00 10.0262 2.6039 0 
321 1 0.48 70.00 9.4040 5.3249 0 
322 1 0.47 70.00 4.7210 17.1345 0 
323 1 0.49 70.00 8.7065 13.8093 0 
324 1 0.48 70.00 4.8378 3.5350 0 
325 1 0.41 70.00 8.3045 7.0601 0 
326 1 0.49 70.00 7.9531 2.8198 0 
327 1 0.49 70.00 7.3818 11.6972 0 
328 1 0.46 70.00 4.5387 11.4080 0 
329 1 0.42 70.00 6.1529 5.8362 0 
330 1 0.45 70.00 18.6028 20.3071 0 
331 1 0.50 70.00 10.7030 16.5533 0 
332 1 0.46 70.00 15.7147 15.1036 0 
333 1 0.47 70.00 19.0967 17.7750 0 
334 1 0.49 70.00 22.1106 13.6496 0 
335 1 0.49 70.00 26.9971 2.0967 0 
336 1 0.48 70.00 18.6989 1.9912 0 
337 1 0.45 70.00 26.9530 18.1247 0 
338 1 0.44 70.00 21.9636 16.5940 0 
339 1 0.51 70.00 6.2232 15.0259 0 
340 1 0.45 70.00 15.5448 6.5722 0 
341 1 0.39 70.00 17.9596 2.9245 0 
342 1 0.48 70.00 10.9170 4.7943 0 
343 1 0.43 70.00 4.0188 1.1244 0 
344 1 0.43 70.00 21.9186 2.6400 0 
345 1 0.46 70.00 2.7384 10.4920 0 
346 1 0.47 70.00 10.3594 18.5920 0 
347 1 0.43 70.00 6.6915 20.4677 0 
348 1 0.49 70.00 2.1185 2.1309 0 
349 1 0.47 70.00 12.7009 2.2391 0 
350 1 0.51 70.00 4.6181 20.8720 0 
351 1 0.50 70.00 20.8551 10.8444 0 
352 1 0.49 70.00 21.4918 7.7465 0 
353 1 0.43 70.00 5.2595 0.7182 0 
354 1 0.45 70.00 26.3221 20.0261 0 
355 1 0.42 70.00 5.4521 21.7016 0 
356 1 0.50 70.00 5.5158 8.8154 0 
357 1 0.45 70.00 14.2811 21.2145 0 
358 1 0.47 70.00 20.5149 4.0061 0 
359 1 0.51 70.00 24.7878 6.2877 0 
360 1 0.50 70.00 19.7995 11.4822 0 
361 1 0.47 70.00 22.8928 11.8920 0 
362 1 0.45 70.00 16.2841 12.0067 0 
363 1 0.53 70.00 20.3054 16.7968 0 
364 1 0.50 70.00 18.9722 13.2851 0 
365 1 0.49 70.00 16.5975 13.4052 0 
366 1 0.50 70.00 26.5540 2.4261 0 
367 1 0.43 70.00 22.4005 1.4198 0 
368 1 0.42 70.00 21.8226 18.0504 0 
369 1 0.49 70.00 25.8661 5.8889 0 
370 1 0.49 70.00 5.0494 8.8505 0 
371 1 0.48 70.00 26.2778 5.6932 0 
372 1 0.47 70.00 14.3781 1.7709 0 
373 1 0.42 70.00 8.2211 8.3078 0 
374 1 0.43 70.00 8.4644 9.1958 0 
375 1 0.54 70.00 25.0977 18.6693 0 
376 1 0.52 70.00 26.3814 17.7018 0 
377 1 0.47 70.00 14.3804 5.7421 0 
378 1 0.44 70.00 14.8015 10.1066 0 
379 1 0.43 70.00 7.2479 18.9558 0 
380 1 0.44 70.00 24.3477 21.4058 0 
381 1 0.48 70.00 19.9310 10.5054 0 
382 1 0.45 70.00 27.2299 4.9098 0 
383 1 0.48 70.00 15.0686 14.7307 0 
384 1 0.48 70.00 12.1325 2.9021 0 
385 1 0.44 70.00 8.6456 13.5032 0 
386 1 0.47 70.00 17.7850 11.8820 0 
387 1 0.46 70.00 22.9162 12.9899 0 
388 1 0.45 70.00 7.8100 2.6368 0 
389 1 0.53 70.00 9.1058 9.0845 0 
390 1 0.43 70.00 26.9446 10.7358 0 
391 1 0.49 70.00 10.5223 15.7378 0 
392 1 0.54 70.00 2.2660 8.3758 0 
393 1 0.51 70.00 8.5609 0.5463 0 
394 1 0.54 70.00 2.4891 2.9068 0 
395 1 0.47 70.00 6.1978 2.2448 0 
396 1 0.47 70.00 15.0719 19.8110 0 
397 1 0.46 70.00 23.9057 16.0482 0 
398 1 0.47 70.00 26.2761 6.9612 0 
399 1 0.48 70.00 4.9911 6.6551 0 
400 1 0.40 70.00 1.1968 12.8845 0 
401 1 0.45 70.00 8.8690 4.4906 0 
402 1 0.51 70.00 24.9771 9.1012 0 
403 1 0.44 70.00 10.4257 21.0011 0 
404 1 0.47 70.00 3.0448 3.4477 0 
405 1 0.44 70.00 10.6939 21.3541 0 
406 1 0.42 70.00 23.1113 11.1249 0 
407 1 0.50 70.00 26.3124 12.6843 0 
408 1 0.49 70.00 24.3385 20.4201 0 
409 1 0.45 70.00 1.7431 17.7708 0 
410 1 0.52 70.00 14.4259 4.6594 0 
411 1 0.50 70.00 7.5072 9.8038 0 
412 1 0.45 70.00 7.4789 12.9536 0 
413 1 0.42 70.00 1.7287 20.7941 0 
414 1 0.46 70.00 23.6205 18.6309 0 
415 1 0.53 70.00 15.6649 14.7230 0 
416 1 0.50 70.00 27.7901 19.4497 0 
417 1 0.42 70.00 1.0399 16.8905 0 
418 1 0.48 70.00 1.0419 10.1189 0 
419 1 0.48 70.00 27.3309 19.2382 0 
420 1 0.43 70.00 24.2532 15.7998 0 
421 1 0.43 70.00 2.8786 12.2205 0 
422 1 0.47 70.00 14.8024 11.9606 0 
423 1 0.45 70.00 9.5715 20.3604 0 
424 1 0.41 70.00 7.7537 7.9446 0 
425 1 0.46 70.00 11.3849 5.3866 0 
426 1 0.41 70.00 4.8182 13.9127 0 
427 1 0.48 70.00 5.3162 17.1764 0 
428 1 0.44 70.00 27.3475 2.0862 0 
429 1 0.46 70.00 20.5827 2.4722 0 
430 1 0.50 70.00 13.2525 19.0627 0 
431 1 0.47 70.00 1.2677 1.4428 0 
432 1 0.46 70.00 2.6391 12.6391 0 
433 1 0.48 70.00 0.7261 5.6296 0 
434 1 0.49 70.00 5.8237 1.8229 0 
435 1 0.45 70.00 9.3376 2.2462 0 
436 1 0.51 70.00 22.4877 15.4654 0 
437 1 0.48 70.00 10.1153 3.4893 0 
438 1 0.48 70.00 3.0428 18.4123 0 
439 1 0.47 70.00 25.9726 1.9542 0 
440 1 0.44 70.00 14.1449 17.4538 0 
441 1 0.48 70.00 10.5794 8.2554 0 
442 1 0.43 70.00 24.3448 18.0987 0 
443 1 0.40 70.00 7.6623 15.0754 0 
444 1 0.48 70.00 5.1537 10.4365 0 
445 1 0.45 70.00 13.9104 4.0009 0 
446 1 0.45 70.00 15.0470 7.6072 0 
447 1 0.45 70.00 2.5025 2.0947 0 
448 1 0.44 70.00 22.4964 12.3273 0 
449 1 0.47 70.00 10.7481 6.5842 0 
450 1 0.50 70.00 25.5472 16.5690 0 
451 1 0.44 70.00 25.1169 0.5935 0 
452 1 0.46 70.00 15.2245 11.4474 0 
453 1 0.44 70.00 21.1679 7.0297 0 
454 1 0.43 70.00 10.5986 7.4701 0 
455 1 0.48 70.00 5.0554 3.7747 0 
456 1 0.51 70.00 21.6053 19.3832 0 
457 1 0.44 70.00 6.0207 0.8796 0 
458 1 0.54 70.00 26.3100 2.1669 0 
459 1 0.46 70.00 19.2977 19.5479 0 
460 1 0.48 70.00 10.5355 1.2192 0 
461 1 0.46 70.00 23.5843 15.2785 0 
462 1 0.49 70.00 7.5395 10.0994 0 
463 1 0.47 70.00 11.0077 3.8006 0 
464 1 0.46 70.00 25.9229 5.6744 0 
465 1 0.46 70.00 10.7429 0.8973 0 
466 1 0.44 70.00 1.9521 9.7899 0 
467 1 0.44 70.00 14.6799 3.4594 0 
468 1 0.48 70.00 23.2587 20.8750 0 
469 1 0.45 70.00 3.3309 16.1440 0 
470 1 0.46 70.00 14.1547 16.6818 0 
471 1 0.43 70.00 14.0951 14.8110 0 
472 1 0.45 70.00 26.3417 3.1682 0 
473 1 0.49 70.00 2.4789 17.7432 0 
474 1 0.43 70.00 12.5713 13.3661 0 
475 1 0.48 70.00 17.1154 10.2063 0 
476 1 0.44 70.00 6.4284 17.8257 0 
477 1 0.45 70.00 3.2254 5.8529 0 
478 1 0.47 70.00 13.4195 1.6548 0 
479 1 0.50 70.00 9.2327 14.8626 0 
480 1 0.46 70.00 16.6499 18.1829 0 
481 1 0.44 70.00 3.4318 12.5974 0 
482 1 0.50 70.00 12.3296 5.4193 0 
483 1 0.47 70.00 27.5473 14.8066 0 
484 1 0.47 70.00 15.0391 16.4338 0 
485 1 0.46 70.00 24.7084 14.0355 0 
486 1 0.45 70.00 19.0892 5.6515 0 
487 1 0.43 70.00 23.6622 6.0709 0 
488 1 0.50 70.00 6.2613 20.0358 0 
489 1 0.47 70.00 27.4566 3.0865 0 
490 1 0.51 70.00 11.9042 15.2268 0 
491 1 0.47 70.00 23.5581 16.3303 0 
492 1 0.43 70.00 19.1505 11.0343 0 
493 1 0.46 70.00 11.7213 2.5507 0 
494 1 0.53 70.00 17.6693 13.6315 0 
495 1 0.48 70.00 6.5038 10.9877 0 
496 1 0.50 70.00 27.2563 4.4082 0 
497 1 0.48 70.00 3.9725 5.0208 0 
498 1 0.45 70.00 19.6789 15.5567 0 
499 1 0.48 70.00 7.1681 5.7976 0 
500 1 0.50 70.00 3.9575 13.2804 0 
501 1 0.45 70.00 22.2442 1.5944 0 
502 1 0.46 70.00 23.8106 12.4141 0 
503 1 0.48 70.00 0.7883 15.0432 0 
504 1 0.47 70.00 3.4907 15.2121 0 
505 1 0.44 70.00 7.5405 20.0701 0 
506 1 0.41 70.00 26.4600 20.1913 0 
507 1 0.47 70.00 2.9515 14.7797 0 
508 1 0.46 70.00 24.7071 18.1843 0 
509 1 0.47 70.00 12.5855 4.2036 0 
510 1 0.44 70.00 3.1589 10.3693 0 
511 1 0.44 70.00 26.8563 2.5686 0 
512 1 0.49 70.00 25.8294 1.1907 0 
513 1 0.45 70.00 12.0499 15.9544 0 
514 1 0.46 70.00 19.0905 2.1390 0 
515 1 0.49 70.00 12.8169 10.3527 0 
516 1 0.45 70.00 17.8200 18.8610 0 
517 1 0.44 70.00 26.5000 14.9570 0 
518 1 0.51 70.00 3.8452 6.3317 0 
519 1 0.48 70.00 22.8146 3.2918 0 
520 1 0.51 70.00 27.0378 7.6925 0 
521 1 0.43 70.00 1.2460 16.7802 0 
522 1 0.53 70.00 24.2135 7.4117 0 
523 1 0.49 70.00 24.6377 11.2877 0 
524 1 0.48 70.00 3.4295 4.2766 0 
525 1 0.44 70.00 22.4192 11.9036 0 
526 1 0.47 70.00 9.7987 8.1558 0 
527 1 0.43 70.00 6.7400 4.5080 0 
528 1 0.50 70.00 8.1885 14.3943 0 
529 1 0.49 70.00 26.4524 18.0399 0 
530 1 0.50 70.00 13.4132 21.4149 0 
531 1 0.47 70.00 1.3465 18.2624 0 
532 1 0.44 70.00 12.3402 14.2886 0 
533 1 0.47 70.00 11.3284 20.3255 0 
534 1 0.45 70.00 22.9261 4.9462 0 
535 1 0.51 70.00 19.9994 4.6962 0 
536 1 0.44 70.00 12.3541 7.5413 0 
537 1 0.45 70.00 14.7233 8.9820 0 
538 1 0.46 70.00 10.3377 1.7524 0 
539 1 0.44 70.00 7.1761 5.4261 0 
540 1 0.43 70.00 25.3908 20.5635 0 
541 1 0.45 70.00 22.5239 8.2165 0 
542 1 0.48 70.00 18.9164 15.6743 0 
543 1 0.41 70.00 17.0282 9.3346 0 
544 1 0.50 70.00 23.4898 11.4978 0 
545 1 0.54 70.00 15.4263 0.5582 0 
546 1 0.48 70.00 0.6012 17.3563 0 
547 1 0.44 70.00 23.2434 9.7224 0 
548 1 0.48 70.00 27.6279 6.6088 0 
549 1 0.51 70.00 19.7298 2.2568 0 
550 1 0.48 70.00 12.2908 10.2007 0 
551 1 0.48 70.00 11.8881 9.0920 0 
552 1 0.48 70.00 12.0153 2.4115 0 
553 1 0.45 70.00 23.7968 19.0066 0 
554 1 0.52 70.00 15.5357 2.5959 0 
555 1 0.49 70.00 4.8591 20.6137 0 
556 1 0.43 70.00 6.7922 9.2903 0 
557 1 0.49 70.00 1.9265 13.2779 0 
558 1 0.46 70.00 18.3706 17.8310 0 
559 1 0.50 70.00 12.7020 18.9231 0 
560 1 0.45 70.00 20.4082 10.2012 0 
561 1 0.54 70.00 20.0704 3.0427 0 
562 1 0.47 70.00 13.9053 16.5375 0 
563 1 0.43 70.00 18.7806 4.7415 0 
564 1 0.51 70.00 6.9144 0.6057 0 
565 1 0.50 70.00 0.6384 4.7539 0 
566 1 0.45 70.00 18.8456 9.0510 0 
567 1 0.47 70.00 3.3094 4.8566 0 
568 1 0.49 70.00 5.0610 2.8516 0 
569 1 0.48 70.00 7.8916 19.9168 0 
570 1 0.50 70.00 4.3887 6.9873 0 
571 1 0.44 70.00 20.0457 15.5757 0 
572 1 0.45 70.00 10.7800 12.5198 0 
573 1 0.45 70.00 3.7880 12.0989 0 
574 1 0.49 70.00 4.9600 11.7734 0 
575 1 0.48 70.00 12.9058 14.0765 0 
576 1 0.49 70.00 2.4038 1.8397 0 
577 1 0.49 70.00 5.2553 12.8843 0 
578 1 0.47 70.00 7.1461 6.5458 0 
579 1 0.49 70.00 13.1073 11.0493 0 
580 1 0.44 70.00 21.0024 7.9000 0 
581 1 0.46 70.00 15.4464 13.8433 0 
582 1 0.53 70.00 24.1822 1.8602 0 
583 1 0.49 70.00 5.8245 11.4457 0 
584 1 0.48 70.00 14.7905 19.0866 0 
585 1 0.43 70.00 23.4671 18.1758 0 
586 1 0.48 70.00 15.0504 1.8771 0 
587 1 0.49 70.00 19.4278 6.9661 0 
588 1 0.49 70.00 6.5304 19.3330 0 
589 1 0.46 70.00 11.3946 13.7924 0 
590 1 0.47 70.00 4.9202 18.7164 0 
591 1 0.48 70.00 7.2488 1.9597 0 
592 1 0.48 70.00 6.1131 3.8187 0 
593 1 0.53 70.00 17.5798 2.7352 0 
594 1 0.45 70.00 18.9737 7.9319 0 
595 1 0.46 70.00 24.4590 3.5284 0 
596 1 0.47 70.00 15.7594 6.4743 0 
597 1 0.45 70.00 8.2448 18.4888 0 
598 1 0.52 70.00 18.6433 4.0083 0 
599 1 0.47 70.00 20.7109 7.5554 0 
600 1 0.51 70.00 5.5362 5.5718 0 
601 1 0.46 70.00 23.0640 14.2064 0 
602 1 0.47 70.00 16.3106 1.2732 0 
603 1 0.50 70.00 27.6484 8.7666 0 
604 1 0.47 70.00 14.7648 5.4723 0 
605 1 0.46 70.00 17.5143 14.1301 0 
606 1 0.52 70.00 12.0328 8.6955 0 
607 1 0.50 70.00 1.1115 2.1923 0 
608 1 0.41 70.00 27.5880 20.0504 0 
609 1 0.44 70.00 4.2473 19.9758 0 
610 1 0.41 70.00 17.3337 3.7951 0 
611 1 0.50 70.00 5.0324 11.0134 0 
612 1 0.44 70.00 0.9637 2.0019 0 
613 1 0.43 70.00 16.5480 9.5703 0 
614 1 0.47 70.00 0.8441 5.9940 0 
615 1 0.50 70.00 12.3868 1.8094 0 
616 1 0.47 70.00 10.2234 18.0661 0 
617 1 0.38 70.00 15.8503 12.6592 0 
618 1 0.50 70.00 26.1519 18.0629 0 
619 1 0.49 70.00 17.3360 11.4959 0 
620 1 0.48 70.00 25.6787 3.6740 0 
621 1 0.49 70.00 21.8569 15.0486 0 
622 1 0.53 70.00 14.6968 13.1978 0 
623 1 0.51 70.00 18.3607 7.5280 0 
624 1 0.49 70.00 1.0816 3.0804 0 
625 1 0.46 70.00 19.4904 2.3750 0 
626 1 0.48 70.00 19.2721 4.4194 0 
627 1 0.51 70.00 25.1746 12.6935 0 
628 1 0.48 70.00 12.8364 6.6934 0 
629 1 0.43 70.00 18.6547 5.4074 0 
630 1 0.53 70.00 12.6257 0.9062 0 
631 1 0.48 70.00 15.3995 5.1382 0 
632 1 0.48 70.00 3.9672 6.7589 0 
633 1 0.49 70.00 15.6221 17.3545 0 
634 1 0.48 70.00 25.7626 3.0393 0 
635 1 0.49 70.00 17.2641 7.4593 0 
636 1 0.49 70.00 17.8539 13.8359 0 
637 1 0.42 70.00 13.7894 5.8224 0 
638 1 0.51 70.00 21.2930 17.9240 0 
639 1 0.44 70.00 17.1472 15.8352 0 
640 1 0.43 70.00 4.2913 9.8707 0 
641 1 0.49 70.00 5.3671 12.3343 0 
642 1 0.46 70.00 2.7731 11.4797 0 
643 1 0.47 70.00 0.9627 4.3458 0 
644 1 0.48 70.00 17.1154 4.9006 0 
645 1 0.43 70.00 2.3958 20.6435 0 
646 1 0.49 70.00 4.8813 11.2863 0 
647 1 0.52 70.00 14.7207 16.6366 0 
648 1 0.49 70.00 6.8414 18.8156 0 
649 1 0.48 70.00 4.9162 7.5546 0 
650 1 0.46 70.00 26.6593 12.6772 0 
651 1 0.45 70.00 7.9133 7.5841 0 
652 1 0.52 70.00 24.5364 1.3685 0 
653 1 0.46 70.00 2.2037 16.5696 0 
654 1 0.49 70.00 19.6518 12.0566 0 
655 1 0.45 70.00 20.3186 8.7679 0 
656 1 0.45 70.00 23.4273 4.9929 0 
657 1 0.45 70.00 10.6440 2.9421 0 
658 1 0.45 70.00 26.7700 11.4197 0 
659 1 0.49 70.00 4.2358 5.0843 0 
660 1 0.48 70.00 16.2951 13.2910 0 
661 1 0.48 70.00 13.7619 18.6856 0 
662 1 0.48 70.00 2.5163 10.7567 0 
663 1 0.48 70.00 21.2704 12.5875 0 
664 1 0.46 70.00 9.1761 5.4555 0 
665 1 0.44 70.00 24.0633 4.5626 0 
666 1 0.44 70.00 11.2750 7.5469 0 
667 1 0.49 70.00 17.6168 9.6173 0 
668 1 0.53 70.00 1.2245 11.3594 0 
669 1 0.43 70.00 22.9962 15.2229 0 
670 1 0.48 70.00 15.5790 11.0454 0 
671 1 0.47 70.00 7.9172 18.5649 0 
672 1 0.45 70.00 8.7664 20.5522 0 
673 1 0.45 70.00 12.8258 21.2684 0 
674 1 0.51 70.00 10.3112 20.8150 0 
675 1 0.44 70.00 13.9975 2.5315 0 
676 1 0.46 70.00 25.6479 16.7779 0 
677 1 0.45 70.00 17.6481 20.8503 0 
678 1 0.46 70.00 9.3873 17.8076 0 
679 1 0.47 70.00 26.3691 11.9903 0 
680 1 0.42 70.00 18.0832 3.1002 0 
681 1 0.46 70.00 3.0476 21.4800 0 
682 1 0.43 70.00 6.1242 11.7344 0 
683 1 0.44 70.00 6.1799 6.8929 0 
684 1 0.48 70.00 21.7445 7.1712 0 
685 1 0.47 70.00 25.5730 6.3094 0 
686 1 0.47 70.00 22.0721 19.2661 0 
687 1 0.51 70.00 4.2138 5.3652 0 
688 1 0.50 70.00 8.1323 6.0906 0 
689 1 0.44 70.00 9.4530 9.5973 0 
690 1 0.43 70.00 16.4617 6.5170 0 
691 1 0.49 70.00 26.6074 6.6996 0 
692 1 0.45 70.00 26.5182 3.9835 0 
693 1 0.45 70.00 27.6767 6.3045 0 
694 1 0.47 70.00 19.9617 15.9374 0 
695 1 0.48 70.00 23.9393 11.5944 0 
696 1 0.44 70.00 23.0611 10.7842 0 
697 1 0.50 70.00 8.5949 12.1238 0 
698 1 0.46 70.00 2.3009 10.9550 0 
699 1 0.46 70.00 6.4988 5.3361 0 
700 1 0.51 70.00 18.5692 11.5754 0 
701 1 0.48 70.00 12.6546 7.5651 0 
702 1 0.45 70.00 16.4174 10.8855 0 
703 1 0.47 70.00 8.6462 19.6042 0 
704 1 0.50 70.00 3.1157 5.4937 0 
705 1 0.54 70.00 12.9131 16.8961 0 
706 1 0.54 70.00 7.4588 15.6494 0 
707 1 0.49 70.00 12.9022 14.8028 0 
708 1 0.44 70.00 26.5966 9.6647 0 
709 1 0.48 70.00 6.1449 15.7110 0 
710 1 0.47 70.00 6.2076 18.0067 0 
711 1 0.46 70.00 14.9385 14.1135 0 
712 1 0.49 70.00 26.6256 1.5436 0 
713 1 0.48 70.00 2.0308 1.0448 0 
714 1 0.49 70.00 21.7527 17.1897 0 
715 1 0.41 70.00 1.0656 21.2996 0 
716 1 0.44 70.00 22.0379 14.0160 0 
717 1 0.45 70.00 5.3886 19.6644 0 
718 1 0.54 70.00 15.8527 7.4085 0 
719 1 0.43 70.00 9.0123 10.2930 0 
720 1 0.46 70.00 27.0491 16.5728 0 
721 1 0.45 70.00 27.3183 4.0582 0 
722 1 0.48 70.00 8.4099 18.7327 0 
723 1 0.53 70.00 13.1025 12.1445 0 
724 1 0.49 70.00 4.4779 18.0408 0 
725 1 0.47 70.00 23.9369 8.2016 0 
726 1 0.46 70.00 3.0812 2.4573 0 
727 1 0.52 70.00 27.6560 0.8735 0 
728 1 0.44 70.00 25.2160 8.4087 0 
729 1 0.46 70.00 6.0512 20.4301 0 
730 1 0.53 70.00 24.7888 7.6580 0 
731 1 0.45 70.00 6.0632 14.4779 0 
732 1 0.46 70.00 5.1790 1.6187 0 
733 1 0.49 70.00 11.5160 17.7895 0 
734 1 0.49 70.00 24.8618 6.9230 0 
735 1 0.51 70.00 6.1152 7.5735 0 
736 1 0.53 70.00 15.1360 20.0824 0 
737 1 0.49 70.00 18.0984 11.4145 0 
738 1 0.45 70.00 6.0961 21.1663 0 
739 1 0.51 70.00 17.0683 7.3864 0 
740 1 0.45 70.00 22.7086 14.1321 0 
741 1 0.49 70.00 2.5912 21.6913 0 
742 1 0.48 70.00 24.0951 14.1848 0 
743 1 0.50 70.00 25.9365 15.1060 0 
744 1 0.45 70.00 14.5449 17.0370 0 
745 1 0.49 70.00 0.6900 11.8418 0 
746 1 0.50 70.00 9.8282 12.6632 0 
747 1 0.49 70.00 25.7031 10.2230 0 
748 1 0.52 70.00 18.6556 9.8551 0 
749 1 0.46 70.00 16.5542 14.0330 0 
750 1 0.47 70.00 11.5646 5.7151 0 
751 1 0.49 70.00 7.7284 0.9838 0 
752 1 0.48 70.00 18.2542 8.7151 0 
753 1 0.48 70.00 26.2472 5.3271 0 
754 1 0.50 70.00 22.7963 19.5891 0 
755 1 0.47 70.00 13.8630 10.9951 0 
756 1 0.44 70.00 9.9988 6.8234 0 
757 1 0.49 70.00 8.5034 21.0161 0 
758 1 0.46 70.00 15.2458 21.6178 0 
759 1 0.43 70.00 20.8578 0.6968 0 
760 1 0.44 70.00 22.1066 3.0686 0 
761 1 0.45 70.00 6.9125 10.7852 0 
762 1 0.41 70.00 2.9826 19.9514 0 
763 1 0.46 70.00 7.7382 21.1847 0 
764 1 0.47 70.00 16.6802 7.4065 0 
765 1 0.46 70.00 1.2569 4.5339 0 
766 1 0.55 70.00 1.3934 8.6791 0 
767 1 0.51 70.00 4.2961 3.3696 0 
768 1 0.44 70.00 25.9020 20.6064 0 
769 1 0.49 70.00 3.4712 5.0717 0 
770 1 0.50 70.00 10.0090 13.6792 0 
771 1 0.45 70.00 21.3252 2.4500 0 
772 1 0.45 70.00 5.3074 4.9049 0 
773 1 0.45 70.00 17.6434 7.1610 0 
774 1 0.45 70.00 20.7735 9.9759 0 
775 1 0.51 70.00 13.6622 8.1686 0 
776 1 0.49 70.00 18.9438 20.1754 0 
777 1 0.52 70.00 25.7927 20.3218 0 
778 1 0.46 70.00 21.2153 0.6747 0 
779 1 0.48 70.00 2.7616 2.4681 0 
780 1 0.45 70.00 11.0438 12.2220 0 
781 1 0.44 70.00 27.4718 10.8702 0 
782 1 0.50 70.00 20.9720 20.2399 0 
783 1 0.50 70.00 16.3152 12.2366 0 
784 1 0.48 70.00 21.1685 16.4065 0 
785 1 0.49 70.00 25.8529 19.2135 0 
786 1 0.45 70.00 21.9489 3.4762 0 
787 1 0.47 70.00 27.3795 16.2260 0 
788 1 0.53 70.00 7.8499 2.3111 0 
789 1 0.46 70.00 9.0269 17.6900 0 
790 1 0.43 70.00 4.4408 1.3578 0 
791 1 0.50 70.00 13.3956 10.5279 0 
792 1 0.45 70.00 21.5314 15.0059 0 
793 1 0.45 70.00 3.9955 7.9302 0 
794 1 0.49 70.00 10.3718 13.3638 0 
795 1 0.48 70.00 7.0100 7.7681 0 
796 1 0.49 70.00 22.5689 2.6761 0 
797 1 0.48 70.00 1.1332 20.7714 0 
798 1 0.41 70.00 5.7490 10.4967 0 
799 1 0.49 70.00 6.3815 14.6102 0 
800 1 0.45 70.00 24.7695 2.5587 0 
801 1 0.49 70.00 17.3696 8.5062 0 
802 1 0.44 70.00 4.2419 18.2390 0 
803 1 0.51 70.00 6.9213 1.1138 0 
804 1 0.49 70.00 19.3429 2.7682 0 
805 1 0.42 70.00 26.2340 15.1199 0 
806 1 0.46 70.00 10.5629 20.7693 0 
807 1 0.46 70.00 5.9455 13.5940 0 
808 1 0.45 70.00 8.0098 13.0328 0 
809 1 0.49 70.00 27.2696 16.8874 0 
810 1 0.48 70.00 14.4775 14.8929 0 
811 1 0.47 70.00 0.6685 0.7237 0 
812 1 0.50 70.00 7.7086 19.7043 0 
813 1 0.46 70.00 3.1522 7.8072 0 
814 1 0.42 70.00 16.7716 18.6009 0 
815 1 0.42 70.00 16.6885 17.7315 0 
816 1 0.46 70.00 2.2871 13.0214 0 
817 1 0.52 70.00 26.9389 6.2231 0 
818 1 0.50 70.00 14.2483 7.0107 0 
819 1 0.52 70.00 5.0638 3.4731 0 
820 1 0.49 70.00 25.4796 7.3840 0 
821 1 0.47 70.00 15.7089 7.7870 0 
822 1 0.47 70.00 25.6933 17.3898 0 
823 1 0.43 70.00 12.9935 0.9009 0 
824 1 0.42 70.00 6.2754 12.6104 0 
825 1 0.50 70.00 7.3033 0.9710 0 
826 1 0.41 70.00 21.3600 16.4825 0 
827 1 0.46 70.00 13.5073 14.3730 0 
828 1 0.41 70.00 16.0060 21.1702 0 
829 1 0.49 70.00 12.3190 9.8720 0 
830 1 0.45 70.00 21.8538 3.1259 0 
831 1 0.50 70.00 14.8799 9.2854 0 
832 1 0.45 70.00 10.2327 17.7328 0 
833 1 0.47 70.00 20.5198 18.0003 0 
834 1 0.47 70.00 3.6004 19.7850 0 
835 1 0.50 70.00 3.9905 20.7176 0 
836 1 0.43 70.00 7.1071 17.8324 0 
837 1 0.47 70.00 22.9964 0.8593 0 
838 1 0.51 70.00 17.7328 21.1002 0 
839 1 0.40 70.00 23.5690 8.4582 0 
840 1 0.46 70.00 11.0731 21.4532 0 
841 1 0.43 70.00 6.6879 15.6360 0 
842 1 0.43 70.00 4.2777 15.6598 0 
843 1 0.47 70.00 1.2677 17.7031 0 
844 1 0.48 70.00 12.5364 13.6038 0 
845 1 0.39 70.00 5.2036 14.9521 0 
846 1 0.44 70.00 25.4486 11.6396 0 
847 1 0.51 70.00 17.9032 5.2417 0 
848 1 0.52 70.00 4.8517 16.1706 0 
849 1 0.45 70.00 22.8325 19.1515 0 
850 1 0.43 70.00 17.9245 4.1298 0 
851 1 0.49 70.00 7.1752 14.8199 0 
852 1 0.44 70.00 15.5620 21.5098 0 