# LAMMPS data file for rigid bodies

6160 atoms

2 atom types

0.0 	 28.0 	 xlo xhi 
0.0 	 22.0 	 ylo yhi 
-1.0 	 1.0 	 zlo zhi 

Atoms

1 1 0.43 70.00 17.5463 5.4206 0 
2 1 0.46 70.00 27.4050 5.3258 0 
3 1 0.46 70.00 22.6971 11.3633 0 
4 1 0.46 70.00 14.9937 0.9855 0 
5 1 0.43 70.00 1.0410 6.5824 0 
6 1 0.47 70.00 9.0731 3.8764 0 
7 1 0.48 70.00 18.6632 6.8094 0 
8 1 0.48 70.00 4.4234 16.8404 0 
9 1 0.46 70.00 4.8558 9.2502 0 
10 1 0.49 70.00 13.4649 4.4628 0 
11 1 0.51 70.00 8.7815 16.7447 0 
12 1 0.52 70.00 15.6117 15.9502 0 
13 1 0.46 70.00 12.2789 21.6241 0 
14 1 0.42 70.00 12.5582 19.6636 0 
15 1 0.47 70.00 26.5357 18.0955 0 
16 1 0.48 70.00 13.5469 16.7833 0 
17 1 0.45 70.00 0.7018 17.9673 0 
18 1 0.41 70.00 26.3954 5.9961 0 
19 1 0.46 70.00 3.1968 3.2451 0 
20 1 0.45 70.00 27.5876 7.5955 0 
21 1 0.51 70.00 11.2126 2.4234 0 
22 1 0.54 70.00 2.7835 18.4458 0 
23 1 0.50 70.00 22.0514 0.7633 0 
24 1 0.49 70.00 22.4070 12.4395 0 
25 1 0.46 70.00 12.7933 16.2678 0 
26 1 0.47 70.00 10.9765 9.1886 0 
27 1 0.49 70.00 2.1989 2.1900 0 
28 1 0.44 70.00 13.7162 20.8379 0 
29 1 0.44 70.00 20.1446 19.9928 0 
30 1 0.44 70.00 17.1767 12.5850 0 
31 1 0.51 70.00 15.0483 2.7837 0 
32 1 0.48 70.00 23.9197 20.1651 0 
33 1 0.43 70.00 14.2057 9.7081 0 
34 1 0.48 70.00 15.0642 20.0704 0 
35 1 0.49 70.00 22.4976 13.6142 0 
36 1 0.47 70.00 10.2455 20.4082 0 
37 1 0.46 70.00 12.6682 17.8933 0 
38 1 0.47 70.00 17.8665 2.1244 0 
39 1 0.45 70.00 16.7093 5.4395 0 
40 1 0.49 70.00 6.3059 1.2761 0 
41 1 0.43 70.00 17.8296 9.3948 0 
42 1 0.48 70.00 15.6822 2.3124 0 
43 1 0.47 70.00 14.6722 8.2108 0 
44 1 0.47 70.00 17.1384 14.6081 0 
45 1 0.43 70.00 14.9407 18.6548 0 
46 1 0.48 70.00 6.8032 11.2750 0 
47 1 0.44 70.00 24.2071 15.3261 0 
48 1 0.42 70.00 25.5640 14.3785 0 
49 1 0.46 70.00 1.1011 11.7823 0 
50 1 0.54 70.00 10.0122 0.8726 0 
51 1 0.51 70.00 23.6222 13.6640 0 
52 1 0.50 70.00 7.5023 11.7163 0 
53 1 0.48 70.00 20.8414 18.9121 0 
54 1 0.50 70.00 10.2341 2.0899 0 
55 1 0.48 70.00 19.5925 3.8735 0 
56 1 0.46 70.00 23.0759 5.6644 0 
57 1 0.47 70.00 15.9136 2.8851 0 
58 1 0.47 70.00 1.7928 15.8258 0 
59 1 0.47 70.00 14.2439 8.0797 0 
60 1 0.50 70.00 12.0752 12.5426 0 
61 1 0.45 70.00 22.2126 8.1288 0 
62 1 0.45 70.00 9.2088 18.4134 0 
63 1 0.46 70.00 20.6999 5.7011 0 
64 1 0.46 70.00 11.6627 20.1468 0 
65 1 0.46 70.00 11.8150 10.1729 0 
66 1 0.49 70.00 2.7577 8.4006 0 
67 1 0.41 70.00 9.6399 15.6038 0 
68 1 0.50 70.00 4.9634 19.1437 0 
69 1 0.44 70.00 16.7176 10.7334 0 
70 1 0.52 70.00 13.8923 12.6942 0 
71 1 0.54 70.00 6.2459 13.4756 0 
72 1 0.46 70.00 21.8534 18.9263 0 
73 1 0.44 70.00 18.7602 2.1951 0 
74 1 0.51 70.00 10.6298 15.1091 0 
75 1 0.49 70.00 25.5031 17.8296 0 
76 1 0.50 70.00 26.1015 8.2401 0 
77 1 0.43 70.00 3.5773 18.8934 0 
78 1 0.47 70.00 3.9106 17.4725 0 
79 1 0.43 70.00 5.4989 9.1009 0 
80 1 0.46 70.00 1.8396 3.9121 0 
81 1 0.45 70.00 18.0918 18.1631 0 
82 1 0.48 70.00 6.4665 5.5360 0 
83 1 0.41 70.00 8.4779 15.2553 0 
84 1 0.49 70.00 0.9600 20.9435 0 
85 1 0.47 70.00 21.9109 12.3796 0 
86 1 0.42 70.00 7.3140 1.6771 0 
87 1 0.54 70.00 8.9580 5.9934 0 
88 1 0.44 70.00 13.5010 3.6840 0 
89 1 0.48 70.00 12.3038 20.7732 0 
90 1 0.48 70.00 19.0592 1.3903 0 
91 1 0.46 70.00 9.0205 1.6822 0 
92 1 0.49 70.00 26.6503 10.6432 0 
93 1 0.48 70.00 19.4651 3.2154 0 
94 1 0.47 70.00 1.0728 18.5476 0 
95 1 0.46 70.00 21.9934 13.0323 0 
96 1 0.41 70.00 12.4311 12.6036 0 
97 1 0.56 70.00 10.5110 7.2542 0 
98 1 0.52 70.00 10.6186 17.2789 0 
99 1 0.52 70.00 20.3530 3.3130 0 
100 1 0.51 70.00 5.9727 13.2413 0 
101 1 0.42 70.00 2.0617 21.1144 0 
102 1 0.43 70.00 8.1017 14.9883 0 
103 1 0.50 70.00 10.2084 8.2397 0 
104 1 0.47 70.00 10.8432 5.6385 0 
105 1 0.48 70.00 9.4805 7.8640 0 
106 1 0.47 70.00 8.0471 10.2449 0 
107 1 0.49 70.00 8.3739 6.3042 0 
108 1 0.49 70.00 2.4002 4.8028 0 
109 1 0.49 70.00 23.7545 8.2831 0 
110 1 0.51 70.00 7.0240 9.3668 0 
111 1 0.44 70.00 8.5871 20.1318 0 
112 1 0.45 70.00 20.1798 7.6128 0 
113 1 0.46 70.00 10.6147 19.5041 0 
114 1 0.49 70.00 13.3627 8.2430 0 
115 1 0.45 70.00 3.5882 6.7632 0 
116 1 0.46 70.00 4.3174 19.8380 0 
117 1 0.43 70.00 3.4605 16.4753 0 
118 1 0.45 70.00 16.7576 10.0408 0 
119 1 0.51 70.00 7.2439 11.3277 0 
120 1 0.46 70.00 23.2305 8.4226 0 
121 1 0.47 70.00 9.4139 10.4052 0 
122 1 0.43 70.00 14.5147 1.7966 0 
123 1 0.48 70.00 10.0616 6.0451 0 
124 1 0.45 70.00 27.6590 10.6010 0 
125 1 0.48 70.00 25.9271 19.5300 0 
126 1 0.50 70.00 3.8158 19.4404 0 
127 1 0.48 70.00 2.6522 12.8072 0 
128 1 0.41 70.00 6.6075 8.2213 0 
129 1 0.50 70.00 6.9024 5.8385 0 
130 1 0.47 70.00 17.4918 0.7050 0 
131 1 0.46 70.00 0.8208 16.8666 0 
132 1 0.47 70.00 25.6787 19.8862 0 
133 1 0.43 70.00 15.5175 13.9663 0 
134 1 0.48 70.00 1.6616 12.1604 0 
135 1 0.45 70.00 12.1411 6.6209 0 
136 1 0.47 70.00 9.8390 6.5810 0 
137 1 0.53 70.00 20.0144 10.4942 0 
138 1 0.44 70.00 12.9510 19.5877 0 
139 1 0.44 70.00 3.0329 20.4315 0 
140 1 0.50 70.00 19.8884 16.7616 0 
141 1 0.48 70.00 15.3531 4.8077 0 
142 1 0.44 70.00 9.9977 18.3231 0 
143 1 0.51 70.00 15.1600 21.4853 0 
144 1 0.45 70.00 26.3933 8.9342 0 
145 1 0.45 70.00 7.5625 14.1576 0 
146 1 0.51 70.00 25.1690 8.4580 0 
147 1 0.50 70.00 2.8833 19.7711 0 
148 1 0.49 70.00 4.7434 4.8538 0 
149 1 0.41 70.00 15.7556 1.6354 0 
150 1 0.46 70.00 6.5404 12.7565 0 
151 1 0.48 70.00 3.5714 21.1303 0 
152 1 0.45 70.00 1.0239 4.2490 0 
153 1 0.48 70.00 1.3899 0.9734 0 
154 1 0.49 70.00 23.1148 3.7715 0 
155 1 0.45 70.00 7.3650 3.4589 0 
156 1 0.49 70.00 26.0102 0.6004 0 
157 1 0.49 70.00 22.1654 4.8770 0 
158 1 0.47 70.00 9.2883 15.6726 0 
159 1 0.51 70.00 9.3539 15.2302 0 
160 1 0.48 70.00 11.5876 3.4855 0 
161 1 0.47 70.00 12.3271 4.1472 0 
162 1 0.50 70.00 17.1964 9.5720 0 
163 1 0.46 70.00 24.5599 11.3597 0 
164 1 0.49 70.00 14.6947 9.7995 0 
165 1 0.48 70.00 1.3058 1.4658 0 
166 1 0.50 70.00 19.7208 0.9001 0 
167 1 0.55 70.00 12.0008 19.2626 0 
168 1 0.50 70.00 18.7588 12.9092 0 
169 1 0.50 70.00 3.1456 14.5917 0 
170 1 0.43 70.00 20.0606 8.6303 0 
171 1 0.45 70.00 0.8431 12.1615 0 
172 1 0.43 70.00 23.5026 14.6826 0 
173 1 0.51 70.00 20.4271 8.1911 0 
174 1 0.51 70.00 0.8156 20.3455 0 
175 1 0.47 70.00 12.4682 18.1766 0 
176 1 0.46 70.00 12.1215 3.8560 0 
177 1 0.45 70.00 23.4270 21.1494 0 
178 1 0.49 70.00 1.4503 15.6454 0 
179 1 0.48 70.00 23.2599 17.2367 0 
180 1 0.49 70.00 0.7310 21.6179 0 
181 1 0.48 70.00 16.5522 14.3444 0 
182 1 0.43 70.00 3.1260 7.2931 0 
183 1 0.48 70.00 20.9454 2.5969 0 
184 1 0.47 70.00 2.9310 17.1420 0 
185 1 0.53 70.00 24.4201 13.4020 0 
186 1 0.50 70.00 4.2163 20.5952 0 
187 1 0.43 70.00 12.7462 9.9552 0 
188 1 0.45 70.00 21.7784 20.3901 0 
189 1 0.46 70.00 17.2748 17.5683 0 
190 1 0.52 70.00 11.9506 9.6063 0 
191 1 0.48 70.00 21.9440 17.2166 0 
192 1 0.48 70.00 1.4620 17.8212 0 
193 1 0.44 70.00 16.5920 3.1633 0 
194 1 0.47 70.00 16.9826 3.1911 0 
195 1 0.50 70.00 14.7502 3.3740 0 
196 1 0.52 70.00 10.8698 13.3786 0 
197 1 0.49 70.00 0.6735 3.3892 0 
198 1 0.43 70.00 9.7207 12.4022 0 
199 1 0.45 70.00 13.8488 10.8891 0 
200 1 0.48 70.00 27.0825 5.5806 0 
201 1 0.51 70.00 11.7450 21.5405 0 
202 1 0.48 70.00 2.1227 17.3878 0 
203 1 0.45 70.00 13.2441 9.8730 0 
204 1 0.46 70.00 6.2249 15.9594 0 
205 1 0.51 70.00 13.1373 14.9033 0 
206 1 0.46 70.00 13.0746 12.5537 0 
207 1 0.44 70.00 14.8717 9.1534 0 
208 1 0.53 70.00 17.6378 20.1850 0 
209 1 0.46 70.00 5.6590 19.4503 0 
210 1 0.49 70.00 14.3793 2.6288 0 
211 1 0.46 70.00 4.6202 20.3256 0 
212 1 0.50 70.00 21.4360 14.8841 0 
213 1 0.49 70.00 8.9492 11.4404 0 
214 1 0.50 70.00 0.6343 14.6984 0 
215 1 0.46 70.00 2.7885 7.1370 0 
216 1 0.49 70.00 16.9768 17.4217 0 
217 1 0.43 70.00 24.3034 20.4011 0 
218 1 0.49 70.00 17.8780 21.6064 0 
219 1 0.46 70.00 22.2550 15.6939 0 
220 1 0.49 70.00 11.7795 6.7034 0 
221 1 0.44 70.00 0.5093 16.8761 0 
222 1 0.46 70.00 3.5472 8.1565 0 
223 1 0.44 70.00 6.4433 12.0259 0 
224 1 0.50 70.00 13.0983 20.0221 0 
225 1 0.51 70.00 21.2697 15.6737 0 
226 1 0.47 70.00 13.0287 1.2311 0 
227 1 0.51 70.00 5.9600 20.1012 0 
228 1 0.48 70.00 18.2081 3.7010 0 
229 1 0.50 70.00 16.1048 17.5162 0 
230 1 0.43 70.00 27.0927 16.8995 0 
231 1 0.49 70.00 8.2080 15.9484 0 
232 1 0.43 70.00 9.0128 20.3785 0 
233 1 0.46 70.00 19.9792 16.0223 0 
234 1 0.45 70.00 20.9361 13.6036 0 
235 1 0.43 70.00 18.7540 0.8615 0 
236 1 0.46 70.00 7.8174 4.9993 0 
237 1 0.47 70.00 8.8974 7.4551 0 
238 1 0.44 70.00 1.3627 4.5820 0 
239 1 0.48 70.00 1.3737 4.1210 0 
240 1 0.46 70.00 15.1811 3.5096 0 
241 1 0.47 70.00 15.7584 7.9056 0 
242 1 0.47 70.00 0.7695 1.1034 0 
243 1 0.43 70.00 19.8299 17.3533 0 
244 1 0.51 70.00 9.1091 3.3559 0 
245 1 0.45 70.00 11.3558 3.8944 0 
246 1 0.46 70.00 6.2699 0.5660 0 
247 1 0.47 70.00 12.2189 16.5598 0 
248 1 0.42 70.00 16.8494 6.9785 0 
249 1 0.50 70.00 8.9308 15.2554 0 
250 1 0.46 70.00 5.0561 14.9423 0 
251 1 0.44 70.00 15.6403 18.0236 0 
252 1 0.53 70.00 2.7530 13.0105 0 
253 1 0.48 70.00 24.0404 16.8313 0 
254 1 0.49 70.00 25.5723 20.2165 0 
255 1 0.49 70.00 18.0383 20.2697 0 
256 1 0.48 70.00 25.2878 11.0316 0 
257 1 0.49 70.00 23.9745 3.8790 0 
258 1 0.46 70.00 1.9016 7.1397 0 
259 1 0.48 70.00 4.8926 5.8416 0 
260 1 0.44 70.00 18.0222 14.0154 0 
261 1 0.42 70.00 14.3968 19.6350 0 
262 1 0.44 70.00 20.6415 15.5328 0 
263 1 0.44 70.00 18.5820 13.8027 0 
264 1 0.51 70.00 21.0385 20.3379 0 
265 1 0.45 70.00 4.8422 16.4593 0 
266 1 0.49 70.00 11.3903 14.6495 0 
267 1 0.49 70.00 18.2002 18.6145 0 
268 1 0.47 70.00 9.1352 19.9964 0 
269 1 0.49 70.00 16.4660 5.0288 0 
270 1 0.45 70.00 14.6996 6.7525 0 
271 1 0.45 70.00 0.8278 17.3919 0 
272 1 0.42 70.00 18.5212 1.2317 0 
273 1 0.47 70.00 23.0081 1.0401 0 
274 1 0.50 70.00 25.7609 5.1395 0 
275 1 0.48 70.00 21.2570 15.2728 0 
276 1 0.44 70.00 27.4056 3.3273 0 
277 1 0.48 70.00 17.3117 16.9979 0 
278 1 0.44 70.00 14.2102 20.1123 0 
279 1 0.46 70.00 24.7183 14.1436 0 
280 1 0.50 70.00 21.8642 6.4946 0 
281 1 0.48 70.00 26.7982 9.7883 0 
282 1 0.48 70.00 14.0903 18.0200 0 
283 1 0.45 70.00 26.2363 14.4669 0 
284 1 0.47 70.00 12.8119 21.4587 0 
285 1 0.44 70.00 12.7702 1.6024 0 
286 1 0.49 70.00 21.3995 11.6722 0 
287 1 0.48 70.00 21.9637 13.7528 0 
288 1 0.43 70.00 21.2389 10.4370 0 
289 1 0.46 70.00 25.5917 11.6028 0 
290 1 0.49 70.00 10.8539 11.5774 0 
291 1 0.45 70.00 6.5876 6.1790 0 
292 1 0.43 70.00 25.2370 15.3538 0 
293 1 0.50 70.00 8.3473 12.9657 0 
294 1 0.42 70.00 9.0607 11.2416 0 
295 1 0.48 70.00 13.4786 8.9563 0 
296 1 0.47 70.00 21.9686 17.6291 0 
297 1 0.50 70.00 17.8428 5.0203 0 
298 1 0.49 70.00 1.0582 14.5923 0 
299 1 0.49 70.00 11.6110 6.9016 0 
300 1 0.54 70.00 19.8684 6.6775 0 
301 1 0.40 70.00 27.3999 11.5483 0 
302 1 0.53 70.00 14.3989 0.5473 0 
303 1 0.45 70.00 18.5569 5.2150 0 
304 1 0.49 70.00 11.4199 15.4367 0 
305 1 0.51 70.00 15.9096 5.7331 0 
306 1 0.47 70.00 24.0481 9.0408 0 
307 1 0.51 70.00 14.2574 7.1853 0 
308 1 0.50 70.00 5.4930 17.5305 0 
309 1 0.52 70.00 14.4572 8.0274 0 
310 1 0.51 70.00 11.5326 17.8805 0 
311 1 0.53 70.00 15.9008 17.7560 0 
312 1 0.54 70.00 6.1767 17.3193 0 
313 1 0.47 70.00 24.4232 9.6530 0 
314 1 0.47 70.00 21.2278 14.0301 0 
315 1 0.49 70.00 5.2121 17.1277 0 
316 1 0.43 70.00 21.7427 16.5570 0 
317 1 0.49 70.00 3.1003 19.8765 0 
318 1 0.44 70.00 25.4275 16.2722 0 
319 1 0.45 70.00 13.0027 4.1975 0 
320 1 0.48 70.00 3.2487 16.9493 0 
321 1 0.51 70.00 26.1077 10.9802 0 
322 1 0.53 70.00 1.2800 9.1562 0 
323 1 0.45 70.00 24.5023 12.8532 0 
324 1 0.47 70.00 27.6315 19.3131 0 
325 1 0.51 70.00 2.0127 6.0529 0 
326 1 0.46 70.00 15.4334 9.6719 0 
327 1 0.47 70.00 5.2670 8.5967 0 
328 1 0.45 70.00 2.2060 15.5131 0 
329 1 0.47 70.00 6.7533 5.0762 0 
330 1 0.49 70.00 9.6635 1.5096 0 
331 1 0.47 70.00 9.2080 11.8293 0 
332 1 0.48 70.00 6.2971 19.0348 0 
333 1 0.42 70.00 18.8923 12.1588 0 
334 1 0.47 70.00 16.0931 16.8815 0 
335 1 0.46 70.00 16.4190 16.8575 0 
336 1 0.47 70.00 9.8186 15.4890 0 
337 1 0.48 70.00 15.8921 11.9025 0 
338 1 0.57 70.00 5.0309 12.5805 0 
339 1 0.48 70.00 5.1158 13.2218 0 
340 1 0.47 70.00 5.3164 16.7253 0 
341 1 0.50 70.00 20.4868 11.7057 0 
342 1 0.44 70.00 20.1150 14.4325 0 
343 1 0.47 70.00 13.5535 19.5025 0 
344 1 0.49 70.00 9.9029 18.1023 0 
345 1 0.48 70.00 5.9455 10.2676 0 
346 1 0.47 70.00 21.4887 19.3561 0 
347 1 0.48 70.00 0.6629 15.2510 0 
348 1 0.47 70.00 4.5049 7.3595 0 
349 1 0.50 70.00 27.0055 14.7862 0 
350 1 0.48 70.00 12.0329 4.8048 0 
351 1 0.50 70.00 15.9018 4.1948 0 
352 1 0.51 70.00 16.3178 16.4624 0 
353 1 0.52 70.00 16.0259 5.2000 0 
354 1 0.44 70.00 8.2336 5.7235 0 
355 1 0.50 70.00 23.7698 10.8137 0 
356 1 0.41 70.00 4.2273 1.8551 0 
357 1 0.48 70.00 26.1985 9.6367 0 
358 1 0.51 70.00 15.7427 18.6047 0 
359 1 0.51 70.00 15.5544 10.0722 0 
360 1 0.46 70.00 20.6324 1.1972 0 
361 1 0.41 70.00 9.4526 2.0744 0 
362 1 0.51 70.00 23.2166 2.8978 0 
363 1 0.45 70.00 27.2239 21.6300 0 
364 1 0.49 70.00 16.6945 11.9235 0 
365 1 0.47 70.00 22.1393 20.5945 0 
366 1 0.47 70.00 18.6755 1.0685 0 
367 1 0.44 70.00 21.2402 17.4468 0 
368 1 0.50 70.00 2.3425 1.5441 0 
369 1 0.46 70.00 17.2628 2.3338 0 
370 1 0.47 70.00 21.1268 19.4874 0 
371 1 0.43 70.00 26.0297 15.8416 0 
372 1 0.49 70.00 7.7969 3.0547 0 
373 1 0.43 70.00 20.7542 9.3827 0 
374 1 0.52 70.00 0.8833 11.8125 0 
375 1 0.45 70.00 15.7769 16.1434 0 
376 1 0.44 70.00 19.0649 3.3097 0 
377 1 0.41 70.00 11.0335 8.0470 0 
378 1 0.47 70.00 3.9422 18.4696 0 
379 1 0.49 70.00 13.5483 13.8079 0 
380 1 0.46 70.00 26.0321 7.3054 0 
381 1 0.48 70.00 24.4156 3.3187 0 
382 1 0.47 70.00 24.6541 5.2492 0 
383 1 0.52 70.00 13.6227 14.5053 0 
384 1 0.45 70.00 20.2457 9.5855 0 
385 1 0.42 70.00 10.0608 10.0554 0 
386 1 0.45 70.00 10.6274 14.5112 0 
387 1 0.50 70.00 0.7152 1.7358 0 
388 1 0.45 70.00 15.3727 4.3495 0 
389 1 0.49 70.00 7.8253 12.8031 0 
390 1 0.44 70.00 24.1554 17.4311 0 
391 1 0.43 70.00 3.6295 7.8550 0 
392 1 0.49 70.00 13.1362 21.4869 0 
393 1 0.50 70.00 27.7017 0.7970 0 
394 1 0.45 70.00 20.2967 2.0491 0 
395 1 0.52 70.00 18.8244 11.0090 0 
396 1 0.48 70.00 4.9560 19.5125 0 
397 1 0.50 70.00 10.1762 11.8292 0 
398 1 0.50 70.00 4.2019 18.5082 0 
399 1 0.53 70.00 6.2896 11.5129 0 
400 1 0.46 70.00 23.7247 15.1419 0 
401 1 0.46 70.00 8.6390 5.9094 0 
402 1 0.43 70.00 4.8032 10.1635 0 
403 1 0.48 70.00 22.9135 6.9774 0 
404 1 0.48 70.00 13.9210 14.5024 0 
405 1 0.47 70.00 23.6971 18.1568 0 
406 1 0.48 70.00 24.1384 1.3418 0 
407 1 0.50 70.00 5.8638 9.7168 0 
408 1 0.45 70.00 14.2547 20.4435 0 
409 1 0.39 70.00 16.8895 6.2105 0 
410 1 0.43 70.00 20.6104 15.3333 0 
411 1 0.45 70.00 15.5495 14.9608 0 
412 1 0.52 70.00 19.9121 13.5704 0 
413 1 0.41 70.00 11.2103 21.6069 0 
414 1 0.43 70.00 26.5952 10.3177 0 
415 1 0.44 70.00 22.3851 1.9489 0 
416 1 0.46 70.00 12.0844 5.7385 0 
417 1 0.47 70.00 15.8479 2.1757 0 
418 1 0.47 70.00 6.2795 3.2719 0 
419 1 0.55 70.00 4.6359 19.3330 0 
420 1 0.49 70.00 22.5784 4.6640 0 
421 1 0.45 70.00 13.4670 8.0589 0 
422 1 0.53 70.00 27.3806 1.1139 0 
423 1 0.52 70.00 5.9260 5.4207 0 
424 1 0.51 70.00 3.4005 16.7009 0 
425 1 0.47 70.00 15.4859 1.1832 0 
426 1 0.46 70.00 18.6009 16.9267 0 
427 1 0.51 70.00 27.2768 10.0840 0 
428 1 0.45 70.00 12.3554 9.0586 0 
429 1 0.47 70.00 22.7624 2.8612 0 
430 1 0.53 70.00 26.9147 18.7910 0 
431 1 0.44 70.00 5.6947 18.2071 0 
432 1 0.45 70.00 23.5151 11.5135 0 
433 1 0.46 70.00 0.8918 8.8831 0 
434 1 0.44 70.00 14.4481 16.1487 0 
435 1 0.43 70.00 12.6281 3.1665 0 
436 1 0.46 70.00 3.3655 6.8856 0 
437 1 0.43 70.00 20.4418 9.2377 0 
438 1 0.47 70.00 26.5475 4.7287 0 
439 1 0.51 70.00 24.0099 19.2722 0 
440 1 0.49 70.00 24.6900 10.9538 0 
441 1 0.50 70.00 14.4900 9.4736 0 
442 1 0.49 70.00 1.5948 1.5986 0 
443 1 0.53 70.00 7.7294 5.3106 0 
444 1 0.43 70.00 27.6136 6.8726 0 
445 1 0.48 70.00 16.4274 0.8298 0 
446 1 0.48 70.00 1.8829 2.6325 0 
447 1 0.48 70.00 27.3107 12.2637 0 
448 1 0.44 70.00 20.2105 6.9579 0 
449 1 0.44 70.00 9.9098 7.9383 0 
450 1 0.49 70.00 8.1939 0.6180 0 
451 1 0.49 70.00 12.6230 3.7541 0 
452 1 0.50 70.00 3.1841 3.9246 0 
453 1 0.46 70.00 27.6458 21.1519 0 
454 1 0.43 70.00 2.4706 7.4223 0 
455 1 0.46 70.00 6.9241 16.2136 0 
456 1 0.49 70.00 8.6985 8.1164 0 
457 1 0.47 70.00 12.3591 17.4256 0 
458 1 0.50 70.00 17.8248 3.6303 0 
459 1 0.43 70.00 24.9812 14.5510 0 
460 1 0.44 70.00 21.9344 9.2014 0 
461 1 0.48 70.00 0.7917 15.4760 0 
462 1 0.52 70.00 20.9397 13.9308 0 
463 1 0.48 70.00 2.7714 2.0586 0 
464 1 0.48 70.00 15.9005 12.4382 0 
465 1 0.47 70.00 17.6404 19.8355 0 
466 1 0.45 70.00 10.9923 4.0483 0 
467 1 0.46 70.00 10.4009 4.5995 0 
468 1 0.42 70.00 4.8734 16.9826 0 
469 1 0.48 70.00 23.1898 16.6661 0 
470 1 0.46 70.00 16.7489 13.5753 0 
471 1 0.43 70.00 9.6266 3.9035 0 
472 1 0.45 70.00 12.9531 21.1373 0 
473 1 0.48 70.00 20.2975 8.8344 0 
474 1 0.49 70.00 6.5353 5.2188 0 
475 1 0.48 70.00 23.7391 17.3064 0 
476 1 0.48 70.00 13.2026 19.5377 0 
477 1 0.46 70.00 8.3701 3.4067 0 
478 1 0.55 70.00 3.8415 15.4663 0 
479 1 0.49 70.00 13.1246 4.6334 0 
480 1 0.44 70.00 5.7402 6.3898 0 
481 1 0.48 70.00 2.7882 9.4417 0 
482 1 0.49 70.00 14.4621 1.0613 0 
483 1 0.44 70.00 12.9282 8.8463 0 
484 1 0.51 70.00 19.0090 1.8025 0 
485 1 0.46 70.00 7.6406 1.1034 0 
486 1 0.41 70.00 27.2522 12.6089 0 
487 1 0.47 70.00 15.3268 15.6086 0 
488 1 0.48 70.00 5.4105 13.0093 0 
489 1 0.50 70.00 11.9809 2.8591 0 
490 1 0.52 70.00 6.7536 8.6568 0 
491 1 0.45 70.00 19.0517 19.5706 0 
492 1 0.48 70.00 24.7004 0.6161 0 
493 1 0.49 70.00 1.2893 14.7920 0 
494 1 0.41 70.00 12.8155 11.3791 0 
495 1 0.49 70.00 25.1442 7.5443 0 
496 1 0.44 70.00 13.3094 17.0832 0 
497 1 0.44 70.00 16.4005 3.0564 0 
498 1 0.49 70.00 27.7286 16.3786 0 
499 1 0.45 70.00 3.2077 16.5664 0 
500 1 0.50 70.00 4.6098 8.9837 0 
501 1 0.46 70.00 9.9662 7.0989 0 
502 1 0.48 70.00 12.3473 19.4343 0 
503 1 0.45 70.00 13.9778 14.2522 0 
504 1 0.51 70.00 25.5140 6.7087 0 
505 1 0.47 70.00 16.1970 14.9011 0 
506 1 0.42 70.00 15.0689 4.2511 0 
507 1 0.47 70.00 2.7877 18.9534 0 
508 1 0.46 70.00 21.4806 4.7147 0 
509 1 0.46 70.00 25.1498 14.0076 0 
510 1 0.46 70.00 27.4408 15.0030 0 
511 1 0.51 70.00 14.2030 19.2619 0 
512 1 0.43 70.00 13.7199 21.2549 0 
513 1 0.44 70.00 14.8302 3.5640 0 
514 1 0.49 70.00 12.9020 7.4972 0 
515 1 0.44 70.00 21.0716 8.8948 0 
516 1 0.44 70.00 6.6607 2.2110 0 
517 1 0.51 70.00 2.0901 14.5920 0 
518 1 0.47 70.00 20.1608 5.8529 0 
519 1 0.43 70.00 22.3141 19.1914 0 
520 1 0.47 70.00 4.6672 15.4167 0 
521 1 0.45 70.00 18.5070 8.8087 0 
522 1 0.44 70.00 7.0328 4.4140 0 
523 1 0.47 70.00 5.5120 17.7906 0 
524 1 0.47 70.00 23.9827 12.4246 0 
525 1 0.45 70.00 9.6863 16.0013 0 
526 1 0.50 70.00 9.9468 9.2641 0 
527 1 0.52 70.00 19.9603 12.2026 0 
528 1 0.48 70.00 4.6637 2.1140 0 
529 1 0.47 70.00 1.2813 6.6367 0 
530 1 0.44 70.00 20.3374 13.2365 0 
531 1 0.47 70.00 16.4917 4.1364 0 
532 1 0.39 70.00 21.0600 19.0355 0 
533 1 0.42 70.00 19.6914 1.3989 0 
534 1 0.46 70.00 13.9102 15.1862 0 
535 1 0.44 70.00 17.1275 20.6714 0 
536 1 0.47 70.00 16.0178 18.2070 0 
537 1 0.48 70.00 16.6392 4.8997 0 
538 1 0.46 70.00 22.9669 18.3735 0 
539 1 0.51 70.00 25.2631 6.3371 0 
540 1 0.50 70.00 26.9019 7.4739 0 
541 1 0.54 70.00 13.7743 2.8470 0 
542 1 0.44 70.00 3.5498 4.2283 0 
543 1 0.48 70.00 27.7869 18.4298 0 
544 1 0.48 70.00 23.6856 3.7343 0 
545 1 0.48 70.00 24.1897 10.5630 0 
546 1 0.44 70.00 13.0688 15.2836 0 
547 1 0.48 70.00 25.8315 4.5276 0 
548 1 0.44 70.00 9.0509 18.8525 0 
549 1 0.48 70.00 2.1398 11.7650 0 
550 1 0.46 70.00 7.6043 14.5453 0 
551 1 0.51 70.00 19.5892 18.7129 0 
552 1 0.47 70.00 7.3498 16.0613 0 
553 1 0.44 70.00 1.5461 14.9669 0 
554 1 0.46 70.00 24.1726 18.1848 0 
555 1 0.47 70.00 4.7643 20.0528 0 
556 1 0.50 70.00 16.2069 17.7099 0 
557 1 0.52 70.00 15.4546 8.5316 0 
558 1 0.45 70.00 12.9942 3.8458 0 
559 1 0.42 70.00 10.1867 9.0623 0 
560 1 0.49 70.00 13.1345 16.6323 0 
561 1 0.45 70.00 13.7811 10.0315 0 
562 1 0.46 70.00 0.8485 8.1741 0 
563 1 0.47 70.00 2.8558 16.0624 0 
564 1 0.47 70.00 3.0880 5.9940 0 
565 1 0.54 70.00 20.3942 6.6322 0 
566 1 0.44 70.00 17.8856 15.7575 0 
567 1 0.43 70.00 6.1681 16.7509 0 
568 1 0.47 70.00 8.6480 11.7904 0 
569 1 0.53 70.00 4.5540 12.9724 0 
570 1 0.49 70.00 0.6117 15.0526 0 
571 1 0.49 70.00 7.1106 13.2286 0 
572 1 0.43 70.00 18.4248 14.6788 0 
573 1 0.47 70.00 5.7457 11.2044 0 
574 1 0.43 70.00 16.2107 0.5904 0 
575 1 0.47 70.00 27.7776 7.0630 0 
576 1 0.51 70.00 25.4775 16.8310 0 
577 1 0.41 70.00 13.1322 4.9737 0 
578 1 0.51 70.00 13.7939 8.1690 0 
579 1 0.48 70.00 11.8948 20.4810 0 
580 1 0.46 70.00 24.4352 0.5041 0 
581 1 0.43 70.00 11.6145 2.1683 0 
582 1 0.46 70.00 24.7900 18.0572 0 
583 1 0.47 70.00 3.2013 8.9444 0 
584 1 0.51 70.00 26.5041 17.2185 0 
585 1 0.46 70.00 6.2090 4.6955 0 
586 1 0.51 70.00 8.9896 12.3198 0 
587 1 0.52 70.00 19.5599 16.3960 0 
588 1 0.49 70.00 12.0513 2.4756 0 
589 1 0.44 70.00 17.0668 8.9575 0 
590 1 0.51 70.00 20.8024 14.2671 0 
591 1 0.48 70.00 7.6305 21.6954 0 
592 1 0.46 70.00 25.6629 19.0683 0 
593 1 0.49 70.00 22.2375 5.7345 0 
594 1 0.43 70.00 8.9525 14.2516 0 
595 1 0.48 70.00 4.1393 5.9532 0 
596 1 0.51 70.00 25.7128 2.4190 0 
597 1 0.43 70.00 16.1325 4.3141 0 
598 1 0.45 70.00 3.2330 18.6438 0 
599 1 0.40 70.00 3.5359 14.6221 0 
600 1 0.50 70.00 1.1922 1.9983 0 
601 1 0.51 70.00 11.2483 0.6430 0 
602 1 0.44 70.00 17.2726 1.2028 0 
603 1 0.49 70.00 5.7529 3.1774 0 
604 1 0.43 70.00 1.2180 19.0279 0 
605 1 0.47 70.00 24.2873 6.8620 0 
606 1 0.46 70.00 15.1747 12.7347 0 
607 1 0.46 70.00 24.1140 7.7936 0 
608 1 0.43 70.00 17.4207 16.3157 0 
609 1 0.44 70.00 17.9311 11.2085 0 
610 1 0.47 70.00 14.4861 12.2060 0 
611 1 0.43 70.00 14.2284 4.0324 0 
612 1 0.46 70.00 10.3642 17.2997 0 
613 1 0.51 70.00 10.9695 16.4385 0 
614 1 0.48 70.00 5.6395 8.0202 0 
615 1 0.48 70.00 7.7428 20.8341 0 
616 1 0.48 70.00 6.2877 8.9014 0 
617 1 0.52 70.00 17.9727 18.7021 0 
618 1 0.47 70.00 19.9193 3.3749 0 
619 1 0.47 70.00 18.9455 3.8495 0 
620 1 0.48 70.00 27.1017 20.6456 0 
621 1 0.41 70.00 2.7840 5.3513 0 
622 1 0.50 70.00 6.3472 4.0643 0 
623 1 0.45 70.00 18.3907 6.6868 0 
624 1 0.47 70.00 9.0581 15.5107 0 
625 1 0.49 70.00 1.8927 9.7927 0 
626 1 0.38 70.00 10.3707 9.6201 0 
627 1 0.45 70.00 25.9227 2.2245 0 
628 1 0.47 70.00 4.2688 2.4364 0 
629 1 0.52 70.00 15.7001 17.5686 0 
630 1 0.52 70.00 14.3883 15.7114 0 
631 1 0.48 70.00 11.5562 21.6097 0 
632 1 0.49 70.00 4.1396 19.5384 0 
633 1 0.43 70.00 15.9444 13.3058 0 
634 1 0.46 70.00 0.6197 4.8310 0 
635 1 0.43 70.00 4.6540 20.7773 0 
636 1 0.43 70.00 13.2530 10.2574 0 
637 1 0.49 70.00 18.6724 8.5639 0 
638 1 0.46 70.00 2.3864 15.8778 0 
639 1 0.52 70.00 19.3706 18.8873 0 
640 1 0.45 70.00 16.4207 13.0380 0 
641 1 0.46 70.00 21.2796 11.3408 0 
642 1 0.47 70.00 11.3527 8.0467 0 
643 1 0.47 70.00 20.2481 17.0672 0 
644 1 0.41 70.00 11.3803 21.4053 0 
645 1 0.47 70.00 20.2156 18.9087 0 
646 1 0.48 70.00 5.0681 18.6587 0 
647 1 0.45 70.00 22.3968 8.6614 0 
648 1 0.46 70.00 6.2373 18.2636 0 
649 1 0.48 70.00 23.7418 14.1633 0 
650 1 0.44 70.00 23.7648 6.6101 0 
651 1 0.45 70.00 3.2009 1.5326 0 
652 1 0.50 70.00 17.9029 4.7449 0 
653 1 0.49 70.00 23.2905 8.9055 0 
654 1 0.44 70.00 10.0714 15.1829 0 
655 1 0.45 70.00 21.0024 18.7832 0 
656 1 0.45 70.00 23.7002 18.9880 0 
657 1 0.43 70.00 25.9327 15.4677 0 
658 1 0.49 70.00 17.3777 4.7469 0 
659 1 0.45 70.00 8.1657 18.2055 0 
660 1 0.45 70.00 8.8221 18.3819 0 
661 1 0.46 70.00 7.5821 1.8081 0 
662 1 0.44 70.00 11.4146 4.0918 0 
663 1 0.49 70.00 21.0109 4.9980 0 
664 1 0.47 70.00 5.0728 21.5937 0 
665 1 0.43 70.00 16.7656 4.2666 0 
666 1 0.47 70.00 6.1307 12.0201 0 
667 1 0.39 70.00 15.9494 20.1104 0 
668 1 0.49 70.00 13.6251 6.9033 0 
669 1 0.49 70.00 8.4145 17.3572 0 
670 1 0.46 70.00 9.8994 15.7739 0 
671 1 0.45 70.00 23.4962 12.3411 0 
672 1 0.47 70.00 21.7536 8.2827 0 
673 1 0.44 70.00 23.2417 5.1998 0 
674 1 0.51 70.00 18.4902 5.8259 0 
675 1 0.46 70.00 4.2775 19.0785 0 
676 1 0.43 70.00 19.9315 6.3935 0 
677 1 0.49 70.00 25.3166 1.9133 0 
678 1 0.42 70.00 8.0590 9.9186 0 
679 1 0.50 70.00 20.9445 10.1150 0 
680 1 0.45 70.00 3.0091 7.1082 0 
681 1 0.48 70.00 5.3130 13.7651 0 
682 1 0.46 70.00 23.4256 1.5558 0 
683 1 0.47 70.00 20.0670 21.6101 0 
684 1 0.49 70.00 26.9869 0.7459 0 
685 1 0.49 70.00 19.9513 11.9264 0 
686 1 0.52 70.00 19.3936 19.5196 0 
687 1 0.48 70.00 11.5931 20.6707 0 
688 1 0.55 70.00 10.8676 4.5092 0 
689 1 0.47 70.00 2.0978 17.0719 0 
690 1 0.46 70.00 3.9209 10.9066 0 
691 1 0.50 70.00 4.8378 6.9961 0 
692 1 0.46 70.00 20.5365 10.1432 0 
693 1 0.46 70.00 26.4507 7.3810 0 
694 1 0.48 70.00 12.0784 18.2972 0 
695 1 0.50 70.00 10.8344 0.9373 0 
696 1 0.48 70.00 19.5796 12.5104 0 
697 1 0.46 70.00 6.7536 5.9809 0 
698 1 0.46 70.00 21.0580 15.6403 0 
699 1 0.44 70.00 13.2997 9.5977 0 
700 1 0.48 70.00 7.1988 14.3828 0 
701 1 0.51 70.00 22.7579 16.8694 0 
702 1 0.50 70.00 25.1107 11.6738 0 
703 1 0.48 70.00 4.8450 8.5960 0 
704 1 0.44 70.00 22.6980 15.4379 0 
705 1 0.50 70.00 8.4642 0.8987 0 
706 1 0.45 70.00 1.5498 1.3710 0 
707 1 0.47 70.00 6.5406 20.3722 0 
708 1 0.52 70.00 25.4918 4.0965 0 
709 1 0.46 70.00 16.1939 2.2883 0 
710 1 0.47 70.00 6.1467 4.2030 0 
711 1 0.43 70.00 11.8595 19.9862 0 
712 1 0.48 70.00 8.7622 2.2414 0 
713 1 0.49 70.00 14.3055 4.9093 0 
714 1 0.49 70.00 13.2407 0.8166 0 
715 1 0.44 70.00 9.7453 13.8135 0 
716 1 0.46 70.00 10.1415 11.1741 0 
717 1 0.44 70.00 4.0025 16.3402 0 
718 1 0.54 70.00 27.0160 6.4216 0 
719 1 0.50 70.00 5.9886 1.2054 0 
720 1 0.41 70.00 17.8336 1.1066 0 
721 1 0.45 70.00 14.5294 13.8021 0 
722 1 0.51 70.00 10.2529 18.2636 0 
723 1 0.47 70.00 25.3259 3.7244 0 
724 1 0.45 70.00 17.3950 4.3826 0 
725 1 0.48 70.00 20.8244 12.8758 0 
726 1 0.47 70.00 7.3727 13.4450 0 
727 1 0.49 70.00 17.3824 12.5187 0 
728 1 0.43 70.00 16.0740 12.8381 0 
729 1 0.49 70.00 8.5382 21.3638 0 
730 1 0.42 70.00 20.4172 14.9441 0 
731 1 0.45 70.00 1.3367 7.9830 0 
732 1 0.50 70.00 14.0395 11.6121 0 
733 1 0.49 70.00 7.8125 10.7331 0 
734 1 0.46 70.00 1.8435 17.9233 0 
735 1 0.43 70.00 16.8128 9.1982 0 
736 1 0.50 70.00 18.1135 16.7078 0 
737 1 0.43 70.00 20.3792 17.4406 0 
738 1 0.44 70.00 24.4647 1.6761 0 
739 1 0.48 70.00 24.2755 8.2783 0 
740 1 0.43 70.00 1.4342 12.4036 0 
741 1 0.44 70.00 6.0111 14.8318 0 
742 1 0.45 70.00 6.3842 6.4147 0 
743 1 0.50 70.00 16.3614 13.3566 0 
744 1 0.46 70.00 8.3011 17.0077 0 
745 1 0.48 70.00 18.8027 5.9372 0 
746 1 0.46 70.00 14.1261 16.8202 0 
747 1 0.50 70.00 7.5471 5.9443 0 
748 1 0.44 70.00 27.6499 5.2603 0 
749 1 0.49 70.00 13.8299 17.4902 0 
750 1 0.48 70.00 23.1760 6.1003 0 
751 1 0.50 70.00 21.4141 8.1638 0 
752 1 0.44 70.00 3.0577 21.2156 0 
753 1 0.51 70.00 11.2052 17.7856 0 
754 1 0.43 70.00 19.6283 14.3093 0 
755 1 0.50 70.00 26.9822 10.0266 0 
756 1 0.44 70.00 13.7637 1.5073 0 
757 1 0.43 70.00 10.0928 15.4399 0 
758 1 0.49 70.00 15.1726 1.6562 0 
759 1 0.44 70.00 12.7026 1.1470 0 
760 1 0.46 70.00 0.5175 19.4052 0 
761 1 0.43 70.00 7.9022 5.7410 0 
762 1 0.47 70.00 26.1596 8.8885 0 
763 1 0.51 70.00 12.4692 8.5899 0 
764 1 0.44 70.00 20.5129 17.7438 0 
765 1 0.47 70.00 10.2177 12.7043 0 
766 1 0.48 70.00 21.6406 4.2995 0 
767 1 0.50 70.00 3.1755 6.2867 0 
768 1 0.51 70.00 20.0659 14.0938 0 
769 1 0.50 70.00 4.9541 15.4013 0 
770 1 0.46 70.00 18.0508 9.8550 0 
771 1 0.49 70.00 17.7026 10.9648 0 
772 1 0.46 70.00 10.5357 3.8098 0 
773 1 0.49 70.00 8.9452 13.0507 0 
774 1 0.53 70.00 24.3918 3.5947 0 
775 1 0.52 70.00 19.6259 3.3350 0 
776 1 0.48 70.00 24.5401 6.2318 0 
777 1 0.45 70.00 4.0682 11.1108 0 
778 1 0.48 70.00 13.0805 12.0072 0 
779 1 0.46 70.00 4.5550 2.8701 0 
780 1 0.48 70.00 22.6551 9.1535 0 
781 1 0.46 70.00 16.9013 13.9824 0 
782 1 0.46 70.00 19.2213 19.0417 0 
783 1 0.44 70.00 6.7443 12.2650 0 
784 1 0.50 70.00 27.1318 11.4003 0 
785 1 0.54 70.00 20.1636 16.3227 0 
786 1 0.48 70.00 11.3197 20.0556 0 
787 1 0.50 70.00 2.5359 11.2708 0 
788 1 0.43 70.00 6.2043 19.4023 0 
789 1 0.46 70.00 27.3819 8.2209 0 
790 1 0.49 70.00 27.3901 18.3578 0 
791 1 0.49 70.00 22.3450 18.3223 0 
792 1 0.49 70.00 13.2879 17.3257 0 
793 1 0.42 70.00 13.8309 11.6361 0 
794 1 0.40 70.00 25.6532 2.7848 0 
795 1 0.49 70.00 27.2401 13.5185 0 
796 1 0.52 70.00 25.5144 15.5373 0 
797 1 0.44 70.00 12.1211 8.7008 0 
798 1 0.55 70.00 16.2301 20.3436 0 
799 1 0.47 70.00 8.4432 16.8421 0 
800 1 0.41 70.00 14.6375 12.4411 0 
801 1 0.51 70.00 27.4777 7.8921 0 
802 1 0.49 70.00 14.8062 7.3970 0 
803 1 0.46 70.00 20.1043 15.2684 0 
804 1 0.46 70.00 5.3648 4.6235 0 
805 1 0.52 70.00 9.7656 18.2800 0 
806 1 0.44 70.00 3.2935 4.9751 0 
807 1 0.43 70.00 11.9937 21.4119 0 
808 1 0.47 70.00 5.4216 9.6729 0 
809 1 0.47 70.00 20.5167 0.5923 0 
810 1 0.39 70.00 1.1057 12.5526 0 
811 1 0.46 70.00 23.5546 7.1238 0 
812 1 0.48 70.00 16.2024 1.8539 0 
813 1 0.52 70.00 19.5755 13.4776 0 
814 1 0.47 70.00 20.3693 13.8680 0 
815 1 0.49 70.00 10.3620 20.0565 0 
816 1 0.51 70.00 26.6134 1.6060 0 
817 1 0.45 70.00 7.1630 19.7933 0 
818 1 0.49 70.00 22.4731 5.9414 0 
819 1 0.45 70.00 7.4167 15.7601 0 
820 1 0.53 70.00 27.4497 14.0400 0 
821 1 0.48 70.00 9.3774 5.8350 0 
822 1 0.46 70.00 27.1655 0.8455 0 
823 1 0.43 70.00 25.6302 16.1699 0 
824 1 0.47 70.00 3.0384 10.7770 0 
825 1 0.47 70.00 24.0175 7.1733 0 
826 1 0.48 70.00 11.6618 4.0682 0 
827 1 0.46 70.00 26.4237 3.5157 0 
828 1 0.46 70.00 1.0830 15.0170 0 
829 1 0.49 70.00 23.1555 1.4879 0 
830 1 0.46 70.00 24.1968 18.4388 0 
831 1 0.41 70.00 5.1953 9.2304 0 
832 1 0.46 70.00 11.9603 16.0374 0 
833 1 0.49 70.00 9.8623 20.3321 0 
834 1 0.49 70.00 18.2593 9.0409 0 
835 1 0.45 70.00 10.6787 7.8699 0 
836 1 0.50 70.00 17.3908 18.4640 0 
837 1 0.48 70.00 18.3665 7.2408 0 
838 1 0.48 70.00 4.9503 5.3589 0 
839 1 0.48 70.00 3.7209 10.4472 0 
840 1 0.48 70.00 2.7744 9.6738 0 
841 1 0.49 70.00 9.3868 13.2445 0 
842 1 0.50 70.00 18.2105 15.6668 0 
843 1 0.43 70.00 22.2128 6.3495 0 
844 1 0.52 70.00 19.3560 9.4720 0 
845 1 0.45 70.00 5.6952 4.1783 0 
846 1 0.49 70.00 10.4939 20.5897 0 
847 1 0.47 70.00 27.4172 19.3324 0 
848 1 0.51 70.00 4.3179 9.9388 0 
849 1 0.48 70.00 19.5143 15.8765 0 
850 1 0.46 70.00 7.1409 17.6744 0 
851 1 0.52 70.00 13.5294 12.3757 0 