# LAMMPS data file for rigid bodies

784 atoms

2 atom types

0.0 	 28.0 	 xlo xhi 
0.0 	 7.0 	 ylo yhi 
-1.0 	 1.0 	 zlo zhi 

Atoms

1 1 0.42 70.00 15.2967 5.0775 0 
2 1 0.43 70.00 8.2313 1.4873 0 
3 1 0.46 70.00 22.2047 5.7227 0 
4 1 0.47 70.00 9.2246 5.0340 0 
5 1 0.49 70.00 8.4477 4.3504 0 
6 1 0.50 70.00 27.2168 4.9475 0 
7 1 0.49 70.00 10.9630 3.0983 0 
8 1 0.50 70.00 6.5799 3.7867 0 
9 1 0.53 70.00 25.4130 1.0772 0 
10 1 0.47 70.00 14.0258 1.9317 0 
11 1 0.50 70.00 10.4161 2.6967 0 
12 1 0.46 70.00 19.6381 5.2390 0 
13 1 0.49 70.00 24.8460 5.9178 0 
14 1 0.42 70.00 3.4898 6.2784 0 
15 1 0.47 70.00 27.2477 4.1220 0 
16 1 0.49 70.00 13.5655 4.0322 0 
17 1 0.46 70.00 9.2755 2.1043 0 
18 1 0.51 70.00 13.3063 2.3662 0 
19 1 0.44 70.00 17.3562 4.2383 0 
20 1 0.51 70.00 4.2393 5.2123 0 
21 1 0.50 70.00 16.8927 5.4408 0 
22 1 0.44 70.00 5.8760 0.5361 0 
23 1 0.55 70.00 9.7109 5.5254 0 
24 1 0.48 70.00 5.1577 0.5222 0 
25 1 0.48 70.00 8.5788 1.0682 0 
26 1 0.48 70.00 0.9279 4.7444 0 
27 1 0.45 70.00 26.1544 4.2782 0 
28 1 0.46 70.00 24.0039 3.4905 0 
29 1 0.48 70.00 13.7197 1.6208 0 
30 1 0.40 70.00 12.7799 0.8157 0 
31 1 0.43 70.00 11.4160 4.9525 0 
32 1 0.46 70.00 12.1594 5.5270 0 
33 1 0.49 70.00 4.5615 3.5666 0 
34 1 0.47 70.00 12.3925 1.9870 0 
35 1 0.46 70.00 14.2297 3.2270 0 
36 1 0.49 70.00 7.7420 1.1216 0 
37 1 0.44 70.00 13.7496 4.2372 0 
38 1 0.44 70.00 23.7586 3.2724 0 
39 1 0.43 70.00 22.8863 2.6720 0 
40 1 0.46 70.00 25.2019 0.8114 0 
41 1 0.47 70.00 1.9249 2.3657 0 
42 1 0.46 70.00 0.9249 6.1315 0 
43 1 0.45 70.00 5.7750 0.7867 0 
44 1 0.48 70.00 9.2944 6.4888 0 
45 1 0.48 70.00 12.3933 6.7396 0 
46 1 0.45 70.00 12.4874 5.5054 0 
47 1 0.47 70.00 23.7161 3.8359 0 
48 1 0.48 70.00 25.9700 2.9403 0 
49 1 0.45 70.00 22.9019 0.6935 0 
50 1 0.51 70.00 3.4758 4.8295 0 
51 1 0.51 70.00 19.2008 4.1495 0 
52 1 0.53 70.00 2.6806 2.1347 0 
53 1 0.45 70.00 27.4787 4.0325 0 
54 1 0.51 70.00 22.2577 6.4675 0 
55 1 0.48 70.00 7.4358 6.4530 0 
56 1 0.44 70.00 20.1177 1.8436 0 
57 1 0.47 70.00 18.5992 1.2319 0 
58 1 0.47 70.00 24.6259 5.4293 0 
59 1 0.45 70.00 13.7415 5.7004 0 
60 1 0.46 70.00 16.1620 4.6411 0 
61 1 0.48 70.00 8.1799 2.7709 0 
62 1 0.47 70.00 15.6781 5.9298 0 
63 1 0.44 70.00 19.7075 2.5129 0 
64 1 0.51 70.00 16.8804 3.2867 0 
65 1 0.50 70.00 26.1284 1.0932 0 
66 1 0.52 70.00 20.4496 3.3675 0 
67 1 0.46 70.00 18.6897 0.5947 0 
68 1 0.47 70.00 14.8371 3.0272 0 
69 1 0.49 70.00 24.6042 5.9505 0 
70 1 0.50 70.00 9.6900 3.5654 0 
71 1 0.48 70.00 23.5895 6.5683 0 
72 1 0.51 70.00 24.2064 4.7835 0 
73 1 0.49 70.00 22.7128 6.5796 0 
74 1 0.47 70.00 5.7190 4.4142 0 
75 1 0.59 70.00 27.3019 1.0766 0 
76 1 0.49 70.00 17.3408 3.3784 0 
77 1 0.43 70.00 22.2544 0.6429 0 
78 1 0.41 70.00 13.2640 6.7174 0 
79 1 0.45 70.00 6.9718 0.7833 0 
80 1 0.45 70.00 12.8598 4.9026 0 
81 1 0.46 70.00 9.1967 5.6143 0 
82 1 0.47 70.00 8.6635 3.4042 0 
83 1 0.47 70.00 20.0086 4.9823 0 
84 1 0.48 70.00 21.9170 2.8836 0 
85 1 0.44 70.00 25.1434 2.4238 0 
86 1 0.48 70.00 4.7927 4.8386 0 
87 1 0.42 70.00 26.1710 2.4856 0 
88 1 0.46 70.00 1.7393 6.7219 0 
89 1 0.53 70.00 23.3726 4.3699 0 
90 1 0.51 70.00 19.6030 1.0886 0 
91 1 0.49 70.00 3.2968 2.4170 0 
92 1 0.48 70.00 22.5537 6.7864 0 
93 1 0.46 70.00 15.4177 3.8310 0 
94 1 0.44 70.00 5.9028 4.5033 0 
95 1 0.46 70.00 25.1951 5.6307 0 
96 1 0.53 70.00 21.9642 4.3007 0 
97 1 0.51 70.00 24.7144 0.6820 0 
98 1 0.49 70.00 15.1133 1.0718 0 
99 1 0.47 70.00 25.6451 3.9119 0 
100 1 0.46 70.00 6.5350 5.4604 0 
101 1 0.46 70.00 12.5843 2.9072 0 
102 1 0.48 70.00 8.6584 5.7005 0 
103 1 0.45 70.00 25.3764 4.4500 0 
104 1 0.46 70.00 17.8099 2.2236 0 
105 1 0.55 70.00 22.6650 1.6212 0 
106 1 0.47 70.00 6.3703 2.1662 0 
107 1 0.49 70.00 17.6806 0.8978 0 
108 1 0.43 70.00 20.6942 5.1066 0 
109 1 0.48 70.00 19.3536 3.3228 0 
110 1 0.51 70.00 9.4511 1.0779 0 
111 1 0.51 70.00 25.5047 1.5275 0 
112 1 0.49 70.00 6.9181 3.7121 0 
113 1 0.47 70.00 4.8533 3.1699 0 
114 1 0.45 70.00 15.1913 2.5683 0 
115 1 0.47 70.00 14.8479 3.6917 0 
116 1 0.46 70.00 21.4931 0.5322 0 
117 1 0.50 70.00 11.3762 3.1186 0 
118 1 0.52 70.00 8.3566 1.9609 0 
119 1 0.47 70.00 4.7007 6.0971 0 
120 1 0.50 70.00 14.5722 0.8361 0 
121 1 0.44 70.00 7.0767 1.4620 0 
122 1 0.46 70.00 17.5316 1.7335 0 
123 1 0.38 70.00 14.6419 3.6694 0 
124 1 0.46 70.00 24.8937 4.8037 0 
125 1 0.48 70.00 23.4827 1.4956 0 
126 1 0.46 70.00 4.7729 2.0210 0 
127 1 0.45 70.00 20.3526 6.3435 0 
128 1 0.50 70.00 12.8853 5.8103 0 
129 1 0.53 70.00 18.9830 6.6925 0 
130 1 0.41 70.00 13.9643 5.1308 0 
131 1 0.46 70.00 3.2532 1.1952 0 
132 1 0.41 70.00 18.3925 4.7591 0 
133 1 0.46 70.00 12.1597 3.6500 0 
134 1 0.48 70.00 16.3643 3.8150 0 
135 1 0.48 70.00 10.6063 3.3012 0 
136 1 0.50 70.00 11.4229 2.1190 0 
137 1 0.45 70.00 15.5812 0.7492 0 
138 1 0.50 70.00 24.5928 6.4417 0 
139 1 0.44 70.00 24.5648 5.6376 0 
140 1 0.45 70.00 24.6871 2.3907 0 
141 1 0.43 70.00 24.6703 1.9055 0 
142 1 0.46 70.00 6.2230 0.9563 0 
143 1 0.43 70.00 24.2773 5.0418 0 
144 1 0.47 70.00 20.9561 6.3821 0 
145 1 0.52 70.00 22.6185 5.8560 0 
146 1 0.51 70.00 11.0053 1.3813 0 
147 1 0.49 70.00 18.8211 2.1388 0 
148 1 0.45 70.00 1.1607 1.4274 0 
149 1 0.50 70.00 7.2009 2.0966 0 
150 1 0.42 70.00 27.4865 6.4526 0 
151 1 0.53 70.00 23.6884 2.6216 0 
152 1 0.43 70.00 9.9289 2.1064 0 
153 1 0.41 70.00 6.9637 6.1562 0 
154 1 0.46 70.00 11.7731 6.1703 0 
155 1 0.48 70.00 20.8138 2.7884 0 
156 1 0.47 70.00 19.6956 6.0574 0 
157 1 0.45 70.00 22.1784 1.0527 0 
158 1 0.48 70.00 8.9762 1.6245 0 
159 1 0.50 70.00 22.3129 1.7015 0 
160 1 0.44 70.00 6.9831 5.3615 0 
161 1 0.50 70.00 11.4723 4.1755 0 
162 1 0.47 70.00 4.0316 2.9407 0 
163 1 0.49 70.00 7.0064 6.5974 0 
164 1 0.45 70.00 16.2253 0.9687 0 
165 1 0.46 70.00 10.8133 2.3059 0 
166 1 0.43 70.00 19.2501 1.2088 0 
167 1 0.42 70.00 10.8602 3.7472 0 
168 1 0.42 70.00 8.8309 5.4257 0 
169 1 0.48 70.00 4.8461 5.4763 0 
170 1 0.45 70.00 20.1388 4.5198 0 
171 1 0.42 70.00 24.0776 2.3398 0 
172 1 0.49 70.00 22.4327 0.5292 0 
173 1 0.45 70.00 2.0036 2.0827 0 
174 1 0.50 70.00 20.4715 3.0346 0 
175 1 0.49 70.00 21.3190 3.7080 0 
176 1 0.49 70.00 21.2317 3.3481 0 
177 1 0.45 70.00 17.8446 3.1351 0 
178 1 0.44 70.00 26.6819 4.4861 0 
179 1 0.48 70.00 22.6767 4.8099 0 
180 1 0.51 70.00 11.7798 2.0852 0 
181 1 0.42 70.00 15.2029 1.5532 0 
182 1 0.48 70.00 8.8809 5.0856 0 
183 1 0.45 70.00 10.3205 1.3591 0 
184 1 0.50 70.00 21.6417 0.8066 0 
185 1 0.46 70.00 0.7467 2.9298 0 
186 1 0.42 70.00 15.6760 2.6200 0 
187 1 0.45 70.00 26.7393 2.1494 0 
188 1 0.48 70.00 3.9773 2.1714 0 
189 1 0.51 70.00 13.6700 2.5319 0 
190 1 0.47 70.00 6.7808 3.9611 0 
191 1 0.44 70.00 24.7421 3.7247 0 
192 1 0.45 70.00 14.2701 4.5528 0 
193 1 0.49 70.00 17.1445 1.1491 0 
194 1 0.48 70.00 20.7451 6.1646 0 
195 1 0.45 70.00 23.1896 2.8452 0 
196 1 0.55 70.00 23.2552 2.6385 0 
197 1 0.44 70.00 27.6509 1.9489 0 
198 1 0.45 70.00 16.2338 1.6168 0 
199 1 0.45 70.00 1.4231 3.4805 0 
200 1 0.51 70.00 19.6705 2.7294 0 
201 1 0.49 70.00 2.4343 1.1545 0 
202 1 0.50 70.00 5.9154 3.5706 0 
203 1 0.49 70.00 0.5271 1.6575 0 
204 1 0.47 70.00 12.7013 1.3401 0 
205 1 0.49 70.00 4.2168 6.5123 0 
206 1 0.48 70.00 11.1900 3.5245 0 
207 1 0.49 70.00 17.8040 3.6412 0 
208 1 0.47 70.00 10.5478 5.0062 0 
209 1 0.48 70.00 8.0226 2.4793 0 
210 1 0.49 70.00 16.8567 5.1644 0 
211 1 0.44 70.00 4.2858 3.8875 0 
212 1 0.51 70.00 2.3914 5.9569 0 
213 1 0.51 70.00 21.2455 1.2974 0 
214 1 0.47 70.00 6.6713 0.6523 0 
215 1 0.44 70.00 12.6742 5.3236 0 
216 1 0.45 70.00 9.8374 6.0376 0 
217 1 0.47 70.00 6.2045 6.2297 0 
218 1 0.44 70.00 27.3443 3.5745 0 
219 1 0.48 70.00 2.6138 4.3905 0 
220 1 0.42 70.00 19.5800 6.5887 0 
221 1 0.44 70.00 2.6908 1.1507 0 
222 1 0.46 70.00 16.8794 0.8993 0 
223 1 0.44 70.00 17.9248 6.0825 0 
224 1 0.49 70.00 5.0376 6.0505 0 
225 1 0.48 70.00 20.6854 5.7283 0 
226 1 0.47 70.00 20.1851 6.7397 0 
227 1 0.46 70.00 16.1526 6.6620 0 
228 1 0.49 70.00 5.1551 1.8774 0 
229 1 0.43 70.00 4.5718 5.6971 0 
230 1 0.50 70.00 4.1335 5.6390 0 
231 1 0.47 70.00 23.1082 0.5704 0 
232 1 0.47 70.00 24.1067 3.2032 0 
233 1 0.53 70.00 3.5842 0.9909 0 
234 1 0.45 70.00 4.5353 4.8345 0 
235 1 0.48 70.00 27.6020 1.2501 0 
236 1 0.47 70.00 25.8784 4.1207 0 
237 1 0.48 70.00 11.9004 2.9430 0 
238 1 0.43 70.00 25.5087 6.2247 0 
239 1 0.50 70.00 26.9309 5.9098 0 
240 1 0.46 70.00 18.4931 4.4515 0 
241 1 0.50 70.00 16.2271 5.2635 0 
242 1 0.44 70.00 20.2019 3.2089 0 
243 1 0.44 70.00 19.6052 5.0031 0 
244 1 0.47 70.00 5.1846 6.2292 0 
245 1 0.45 70.00 3.0484 6.3826 0 
246 1 0.50 70.00 24.3972 3.3735 0 
247 1 0.48 70.00 7.7219 3.6853 0 
248 1 0.42 70.00 13.7831 6.0374 0 
249 1 0.46 70.00 1.3479 3.9479 0 
250 1 0.43 70.00 8.9805 2.7887 0 
251 1 0.49 70.00 15.6325 3.3388 0 
252 1 0.47 70.00 1.7361 2.9176 0 
253 1 0.50 70.00 9.7999 4.3908 0 
254 1 0.52 70.00 11.9421 1.1480 0 
255 1 0.44 70.00 23.1799 5.7363 0 
256 1 0.50 70.00 6.5886 5.8000 0 
257 1 0.51 70.00 12.5545 3.2926 0 
258 1 0.47 70.00 7.4578 2.5803 0 
259 1 0.46 70.00 8.0932 3.8683 0 
260 1 0.46 70.00 19.9971 0.8710 0 
261 1 0.50 70.00 1.8189 6.0055 0 
262 1 0.48 70.00 13.3495 0.8913 0 
263 1 0.50 70.00 5.2750 0.7510 0 
264 1 0.43 70.00 3.6693 2.4078 0 
265 1 0.55 70.00 1.9112 5.4294 0 
266 1 0.45 70.00 24.6947 6.1790 0 
267 1 0.45 70.00 18.5689 5.1168 0 
268 1 0.42 70.00 24.5106 0.6960 0 
269 1 0.47 70.00 13.1703 4.1734 0 
270 1 0.46 70.00 7.6477 4.2103 0 
271 1 0.49 70.00 5.3726 6.1334 0 
272 1 0.53 70.00 17.8902 5.4934 0 
273 1 0.47 70.00 18.4611 4.1156 0 
274 1 0.44 70.00 4.5237 2.5809 0 
275 1 0.47 70.00 16.2406 4.9818 0 
276 1 0.48 70.00 6.9162 1.6951 0 
277 1 0.48 70.00 23.5877 1.0294 0 
278 1 0.46 70.00 7.3865 0.6783 0 
279 1 0.47 70.00 7.6034 4.5085 0 
280 1 0.50 70.00 5.8405 2.8625 0 
281 1 0.49 70.00 5.3343 2.5653 0 
282 1 0.46 70.00 27.6659 5.1705 0 
283 1 0.47 70.00 25.8147 1.9354 0 
284 1 0.44 70.00 8.1973 5.8498 0 
285 1 0.46 70.00 4.8983 3.9344 0 
286 1 0.47 70.00 21.5173 1.9910 0 
287 1 0.46 70.00 1.3427 6.5928 0 
288 1 0.45 70.00 13.4163 3.0398 0 
289 1 0.42 70.00 11.7843 3.7830 0 
290 1 0.45 70.00 17.1645 6.0511 0 
291 1 0.39 70.00 3.0272 2.4299 0 
292 1 0.44 70.00 4.1034 1.4218 0 
293 1 0.50 70.00 19.7690 4.0783 0 
294 1 0.46 70.00 11.4349 6.6188 0 
295 1 0.47 70.00 2.6175 3.6006 0 
296 1 0.48 70.00 15.1774 1.8887 0 
297 1 0.51 70.00 5.6978 2.5846 0 
298 1 0.51 70.00 5.4551 6.7312 0 
299 1 0.52 70.00 13.7277 6.5397 0 
300 1 0.49 70.00 12.0629 1.8373 0 
301 1 0.42 70.00 3.9233 5.8080 0 
302 1 0.45 70.00 10.4851 6.6758 0 
303 1 0.51 70.00 18.4298 2.9483 0 
304 1 0.47 70.00 21.1174 5.7663 0 
305 1 0.50 70.00 3.4223 1.6114 0 
306 1 0.51 70.00 13.9414 1.5868 0 
307 1 0.45 70.00 2.1228 1.8707 0 
308 1 0.49 70.00 10.5758 3.6643 0 
309 1 0.49 70.00 17.5579 2.8203 0 
310 1 0.45 70.00 10.4176 6.0504 0 
311 1 0.46 70.00 2.5072 5.2694 0 
312 1 0.53 70.00 2.8369 0.6954 0 
313 1 0.46 70.00 24.2483 2.5246 0 
314 1 0.46 70.00 6.0005 2.4123 0 
315 1 0.47 70.00 10.9237 1.1682 0 
316 1 0.48 70.00 3.8539 1.3789 0 
317 1 0.46 70.00 6.1032 2.1283 0 
318 1 0.50 70.00 20.9765 1.9190 0 
319 1 0.48 70.00 27.2092 5.5360 0 
320 1 0.44 70.00 10.8820 6.0863 0 
321 1 0.48 70.00 26.0367 0.8589 0 
322 1 0.47 70.00 23.1081 4.2219 0 
323 1 0.44 70.00 7.2692 2.7429 0 
324 1 0.50 70.00 5.4928 3.0143 0 
325 1 0.49 70.00 25.0641 4.0680 0 
326 1 0.46 70.00 11.8358 5.4092 0 
327 1 0.51 70.00 2.5642 0.6998 0 
328 1 0.46 70.00 0.8455 3.8222 0 
329 1 0.48 70.00 20.9440 0.9905 0 
330 1 0.48 70.00 14.0274 1.3712 0 
331 1 0.51 70.00 7.6247 2.4578 0 
332 1 0.44 70.00 1.7847 1.9648 0 
333 1 0.50 70.00 12.1648 0.7347 0 
334 1 0.39 70.00 6.7188 4.8607 0 
335 1 0.43 70.00 23.5028 0.5699 0 
336 1 0.41 70.00 22.1477 3.0723 0 
337 1 0.47 70.00 23.5076 6.3679 0 
338 1 0.46 70.00 1.9839 3.4448 0 
339 1 0.50 70.00 10.5846 6.1960 0 
340 1 0.45 70.00 19.6762 6.4101 0 
341 1 0.50 70.00 26.6340 1.5412 0 
342 1 0.49 70.00 8.9768 3.3605 0 
343 1 0.46 70.00 0.9046 5.0019 0 
344 1 0.46 70.00 24.1552 0.7786 0 
345 1 0.47 70.00 21.3484 6.3256 0 
346 1 0.49 70.00 20.0935 6.2832 0 
347 1 0.48 70.00 11.6516 6.6790 0 
348 1 0.47 70.00 24.9394 4.5110 0 
349 1 0.49 70.00 23.9382 1.8926 0 
350 1 0.51 70.00 1.3937 4.9905 0 
351 1 0.48 70.00 19.9294 6.6170 0 
352 1 0.47 70.00 2.2049 6.4597 0 
353 1 0.42 70.00 22.2036 4.5361 0 
354 1 0.51 70.00 1.9870 6.6910 0 
355 1 0.45 70.00 25.8018 6.6973 0 
356 1 0.47 70.00 27.4250 0.6137 0 
357 1 0.47 70.00 7.7150 1.6789 0 
358 1 0.47 70.00 11.2305 5.8813 0 
359 1 0.49 70.00 18.0027 2.4538 0 
360 1 0.50 70.00 27.5486 2.9949 0 
361 1 0.47 70.00 3.5872 3.8098 0 
362 1 0.46 70.00 4.2872 5.8798 0 
363 1 0.51 70.00 1.4356 1.1479 0 
364 1 0.50 70.00 6.3369 2.7491 0 
365 1 0.42 70.00 18.2288 5.4913 0 
366 1 0.50 70.00 15.3377 3.2283 0 
367 1 0.49 70.00 7.6473 6.0788 0 
368 1 0.48 70.00 16.4450 4.6108 0 
369 1 0.45 70.00 16.2768 2.3625 0 
370 1 0.48 70.00 11.7102 1.1347 0 
371 1 0.47 70.00 25.7181 3.6813 0 
372 1 0.44 70.00 9.4205 0.8762 0 
373 1 0.46 70.00 27.5080 4.5685 0 
374 1 0.52 70.00 18.1861 1.0965 0 
375 1 0.43 70.00 11.1045 6.2400 0 
376 1 0.51 70.00 21.4352 1.6994 0 
377 1 0.46 70.00 22.9685 3.0859 0 
378 1 0.48 70.00 0.9397 6.7889 0 
379 1 0.46 70.00 17.3024 5.2344 0 
380 1 0.46 70.00 10.0832 2.3963 0 
381 1 0.45 70.00 15.5435 1.0297 0 
382 1 0.49 70.00 1.3042 2.7100 0 
383 1 0.53 70.00 10.9304 5.8405 0 
384 1 0.48 70.00 8.8654 6.4920 0 
385 1 0.50 70.00 10.0865 4.4727 0 
386 1 0.51 70.00 18.5736 3.2000 0 
387 1 0.42 70.00 15.9313 2.8721 0 
388 1 0.45 70.00 12.9302 4.4345 0 
389 1 0.45 70.00 9.5731 4.2773 0 
390 1 0.47 70.00 7.7631 2.9683 0 
391 1 0.46 70.00 20.5195 1.1259 0 
392 1 0.45 70.00 12.6534 1.8553 0 
393 1 0.46 70.00 0.5062 4.4339 0 
394 1 0.49 70.00 2.6152 3.9376 0 
395 1 0.47 70.00 26.6972 6.0302 0 
396 1 0.49 70.00 4.7671 4.5906 0 
397 1 0.49 70.00 13.1038 2.1563 0 
398 1 0.48 70.00 25.7814 2.4718 0 
399 1 0.46 70.00 19.4732 4.2976 0 
400 1 0.49 70.00 20.3038 2.6014 0 
401 1 0.49 70.00 26.7757 1.9509 0 
402 1 0.47 70.00 12.4884 4.2448 0 
403 1 0.49 70.00 4.4392 5.4949 0 
404 1 0.51 70.00 19.5720 3.3706 0 
405 1 0.47 70.00 16.1462 3.0880 0 
406 1 0.54 70.00 16.3463 0.5732 0 
407 1 0.46 70.00 1.5521 1.7721 0 
408 1 0.49 70.00 26.2866 0.5033 0 
409 1 0.46 70.00 14.7185 2.7956 0 
410 1 0.44 70.00 18.0073 2.9585 0 
411 1 0.50 70.00 15.6516 6.4229 0 
412 1 0.48 70.00 26.9507 2.0584 0 
413 1 0.50 70.00 20.5798 5.3730 0 
414 1 0.44 70.00 17.1386 0.9154 0 
415 1 0.45 70.00 3.0790 4.3212 0 
416 1 0.47 70.00 27.0885 4.4774 0 
417 1 0.49 70.00 23.6932 6.1023 0 
418 1 0.49 70.00 12.5332 5.1542 0 
419 1 0.47 70.00 6.4989 3.2930 0 
420 1 0.49 70.00 18.3788 3.8785 0 
421 1 0.41 70.00 9.7630 3.0115 0 
422 1 0.47 70.00 4.8738 5.0973 0 
423 1 0.47 70.00 17.6133 5.3567 0 
424 1 0.48 70.00 1.8973 3.2589 0 
425 1 0.51 70.00 16.3409 5.8923 0 
426 1 0.46 70.00 23.3372 2.3478 0 
427 1 0.48 70.00 4.0069 6.5393 0 
428 1 0.41 70.00 21.5682 4.3438 0 
429 1 0.48 70.00 5.3474 3.8364 0 
430 1 0.44 70.00 21.7750 4.7365 0 
431 1 0.53 70.00 10.4727 2.4987 0 
432 1 0.46 70.00 8.5129 6.2308 0 
433 1 0.53 70.00 26.1668 5.3671 0 
434 1 0.47 70.00 19.1623 4.8745 0 
435 1 0.49 70.00 10.9924 2.0562 0 
436 1 0.48 70.00 16.4334 5.0441 0 
437 1 0.49 70.00 1.5762 1.3444 0 
438 1 0.46 70.00 19.2981 0.9107 0 
439 1 0.50 70.00 1.0170 3.2142 0 
440 1 0.46 70.00 21.5160 1.0081 0 
441 1 0.56 70.00 25.2660 1.9525 0 
442 1 0.48 70.00 24.7020 2.7599 0 
443 1 0.47 70.00 11.5707 6.3993 0 
444 1 0.48 70.00 24.4890 5.0318 0 
445 1 0.51 70.00 26.3299 3.8277 0 
446 1 0.47 70.00 25.2335 6.5684 0 
447 1 0.51 70.00 25.4246 5.7200 0 
448 1 0.49 70.00 24.5100 1.4442 0 
449 1 0.48 70.00 16.5573 5.7774 0 
450 1 0.43 70.00 22.0470 1.8982 0 
451 1 0.52 70.00 19.4371 5.5549 0 
452 1 0.49 70.00 2.7886 1.4322 0 
453 1 0.49 70.00 22.8223 5.9882 0 
454 1 0.46 70.00 4.2208 2.4241 0 
455 1 0.53 70.00 17.6731 4.4559 0 
456 1 0.47 70.00 8.4161 2.6712 0 
457 1 0.46 70.00 16.6973 1.7382 0 
458 1 0.47 70.00 14.9296 0.6995 0 
459 1 0.45 70.00 18.9822 2.5128 0 
460 1 0.42 70.00 9.6063 1.8281 0 
461 1 0.47 70.00 27.0184 4.8823 0 
462 1 0.40 70.00 12.1379 4.3682 0 
463 1 0.50 70.00 21.7128 5.9484 0 
464 1 0.46 70.00 2.9128 1.7216 0 
465 1 0.47 70.00 12.8382 3.9209 0 
466 1 0.46 70.00 22.6310 5.5558 0 
467 1 0.49 70.00 2.5904 4.1729 0 
468 1 0.47 70.00 14.1076 4.0974 0 
469 1 0.45 70.00 2.7883 4.9336 0 
470 1 0.50 70.00 16.0201 4.8515 0 
471 1 0.48 70.00 12.0212 1.6237 0 
472 1 0.49 70.00 18.7127 3.3700 0 
473 1 0.51 70.00 24.9140 5.3065 0 
474 1 0.45 70.00 9.4977 2.8642 0 
475 1 0.47 70.00 4.2286 0.9256 0 
476 1 0.51 70.00 16.9709 4.9248 0 
477 1 0.50 70.00 13.4200 5.6752 0 
478 1 0.45 70.00 2.5572 1.6752 0 
479 1 0.43 70.00 17.4488 1.9253 0 
480 1 0.44 70.00 13.4365 6.5596 0 
481 1 0.42 70.00 18.4330 6.3844 0 
482 1 0.53 70.00 3.2729 3.3453 0 
483 1 0.50 70.00 24.2338 2.1481 0 
484 1 0.43 70.00 9.5494 3.2044 0 
485 1 0.49 70.00 7.4544 4.3202 0 
486 1 0.45 70.00 8.0612 1.3466 0 
487 1 0.49 70.00 24.4969 2.4815 0 
488 1 0.44 70.00 18.3587 2.6704 0 
489 1 0.43 70.00 10.1103 4.0580 0 
490 1 0.49 70.00 14.9257 6.1663 0 
491 1 0.43 70.00 21.0422 4.8611 0 
492 1 0.48 70.00 21.9930 2.5893 0 
493 1 0.50 70.00 13.8024 2.1218 0 
494 1 0.47 70.00 25.5716 6.7501 0 
495 1 0.45 70.00 23.1539 1.5557 0 
496 1 0.45 70.00 2.2412 4.1117 0 
497 1 0.51 70.00 8.4890 5.4575 0 
498 1 0.48 70.00 17.0709 4.2111 0 
499 1 0.49 70.00 1.3797 4.1782 0 
500 1 0.47 70.00 6.6028 6.7492 0 
501 1 0.48 70.00 10.1953 6.4505 0 
502 1 0.43 70.00 21.0411 2.5427 0 
503 1 0.47 70.00 16.1748 4.2669 0 
504 1 0.54 70.00 1.0369 6.4329 0 
505 1 0.42 70.00 21.1008 0.5485 0 
506 1 0.52 70.00 9.7331 1.0672 0 
507 1 0.42 70.00 13.7493 4.7190 0 
508 1 0.48 70.00 10.2854 3.8809 0 
509 1 0.45 70.00 1.7246 0.9047 0 
510 1 0.49 70.00 1.0783 5.5548 0 
511 1 0.45 70.00 1.2079 2.9307 0 
512 1 0.51 70.00 17.1474 3.4757 0 
513 1 0.45 70.00 20.3108 5.3492 0 
514 1 0.52 70.00 11.7068 1.5551 0 
515 1 0.45 70.00 18.8733 1.0414 0 
516 1 0.45 70.00 14.4763 2.5275 0 
517 1 0.47 70.00 6.2161 2.9397 0 
518 1 0.48 70.00 9.8243 6.5859 0 
519 1 0.51 70.00 26.0090 3.5048 0 
520 1 0.47 70.00 5.4849 4.2650 0 
521 1 0.49 70.00 10.9581 2.7929 0 
522 1 0.54 70.00 22.4487 6.0385 0 
523 1 0.45 70.00 23.3878 3.7321 0 
524 1 0.44 70.00 13.3822 1.3308 0 
525 1 0.44 70.00 10.7446 0.9255 0 
526 1 0.52 70.00 5.9948 1.3327 0 
527 1 0.46 70.00 24.5875 0.5033 0 
528 1 0.46 70.00 19.0951 3.3557 0 
529 1 0.49 70.00 6.4145 0.6138 0 
530 1 0.45 70.00 23.0753 1.1105 0 
531 1 0.50 70.00 14.9686 5.5611 0 
532 1 0.47 70.00 12.4950 3.7282 0 
533 1 0.51 70.00 18.0326 1.9411 0 
534 1 0.45 70.00 21.8240 1.4640 0 
535 1 0.43 70.00 12.9890 1.6540 0 
536 1 0.45 70.00 8.8823 0.5572 0 
537 1 0.45 70.00 27.6944 5.4552 0 
538 1 0.47 70.00 7.5863 4.9204 0 
539 1 0.46 70.00 6.1230 5.3519 0 
540 1 0.47 70.00 22.3862 4.8449 0 
541 1 0.56 70.00 21.4022 2.8914 0 
542 1 0.49 70.00 4.3135 2.9365 0 
543 1 0.48 70.00 17.8470 4.8252 0 
544 1 0.49 70.00 6.5808 2.7980 0 
545 1 0.48 70.00 20.3988 5.9146 0 
546 1 0.48 70.00 4.8733 1.0989 0 
547 1 0.49 70.00 19.7338 2.0936 0 
548 1 0.50 70.00 15.1588 2.9117 0 
549 1 0.50 70.00 20.7588 3.3417 0 
550 1 0.52 70.00 16.4784 2.2545 0 
551 1 0.46 70.00 7.2187 3.7415 0 
552 1 0.49 70.00 22.0811 4.1287 0 
553 1 0.45 70.00 1.2905 5.7652 0 
554 1 0.44 70.00 3.2628 5.9054 0 
555 1 0.41 70.00 1.9082 5.7675 0 
556 1 0.45 70.00 11.2267 1.0483 0 
557 1 0.47 70.00 18.9325 3.6360 0 
558 1 0.42 70.00 13.3483 1.9529 0 
559 1 0.48 70.00 6.7439 3.2181 0 
560 1 0.45 70.00 6.9668 0.5472 0 
561 1 0.47 70.00 7.5036 3.7126 0 
562 1 0.44 70.00 26.1363 1.9260 0 
563 1 0.47 70.00 20.6608 0.7920 0 
564 1 0.49 70.00 20.4353 3.9273 0 
565 1 0.45 70.00 6.5073 1.2403 0 
566 1 0.46 70.00 18.1016 1.7289 0 
567 1 0.45 70.00 10.5882 4.5591 0 
568 1 0.52 70.00 13.9677 6.3679 0 
569 1 0.46 70.00 20.3565 4.1590 0 
570 1 0.49 70.00 6.1751 1.5060 0 
571 1 0.42 70.00 1.0207 5.8242 0 
572 1 0.44 70.00 16.7813 3.0322 0 
573 1 0.50 70.00 14.7414 5.2855 0 
574 1 0.42 70.00 16.8554 2.7937 0 
575 1 0.49 70.00 17.6180 3.0648 0 
576 1 0.49 70.00 22.1948 3.5230 0 
577 1 0.50 70.00 7.1624 6.3296 0 
578 1 0.46 70.00 6.8280 1.0853 0 
579 1 0.46 70.00 1.5118 4.6320 0 
580 1 0.47 70.00 14.8175 1.4705 0 
581 1 0.47 70.00 12.1781 6.0901 0 
582 1 0.49 70.00 4.0751 4.3541 0 
583 1 0.47 70.00 23.4825 4.7443 0 
584 1 0.44 70.00 9.0485 5.9071 0 
585 1 0.50 70.00 20.8973 0.5118 0 
586 1 0.51 70.00 0.7059 5.4341 0 
587 1 0.43 70.00 3.5895 4.5647 0 
588 1 0.47 70.00 26.2350 3.5423 0 
589 1 0.45 70.00 16.8907 2.2397 0 
590 1 0.45 70.00 20.9983 5.1623 0 
591 1 0.46 70.00 1.3998 2.2310 0 
592 1 0.47 70.00 20.1523 1.5161 0 
593 1 0.42 70.00 23.9909 4.2614 0 
594 1 0.46 70.00 12.3838 2.9205 0 
595 1 0.49 70.00 1.6613 4.7833 0 
596 1 0.47 70.00 19.0136 1.2962 0 
597 1 0.50 70.00 25.2996 1.6850 0 
598 1 0.44 70.00 3.7045 2.1893 0 
599 1 0.47 70.00 3.5813 5.9643 0 
600 1 0.49 70.00 17.3340 0.5733 0 
601 1 0.47 70.00 24.9333 0.8972 0 
602 1 0.48 70.00 16.5292 1.5121 0 
603 1 0.47 70.00 11.5959 5.8791 0 
604 1 0.47 70.00 22.5424 1.8356 0 
605 1 0.46 70.00 14.2599 0.8409 0 
606 1 0.45 70.00 18.0715 3.1531 0 
607 1 0.46 70.00 23.8338 4.0307 0 
608 1 0.46 70.00 14.7046 6.6826 0 
609 1 0.45 70.00 0.6624 0.9767 0 
610 1 0.52 70.00 9.0807 3.5952 0 
611 1 0.49 70.00 10.2418 1.8245 0 
612 1 0.49 70.00 5.1049 5.7131 0 
613 1 0.49 70.00 25.6693 0.8795 0 
614 1 0.48 70.00 19.5225 2.4121 0 
615 1 0.48 70.00 18.9959 5.9049 0 
616 1 0.53 70.00 8.1493 1.9330 0 
617 1 0.48 70.00 11.8572 4.1281 0 
618 1 0.49 70.00 9.9743 3.0684 0 
619 1 0.46 70.00 25.0691 5.9382 0 
620 1 0.50 70.00 25.1233 3.5984 0 
621 1 0.45 70.00 13.0230 0.9941 0 
622 1 0.42 70.00 19.2674 5.1773 0 
623 1 0.47 70.00 16.1848 6.0799 0 
624 1 0.48 70.00 21.9802 1.2698 0 
625 1 0.53 70.00 6.8934 6.7987 0 
626 1 0.57 70.00 6.8178 2.8247 0 
627 1 0.50 70.00 27.4443 5.4395 0 
628 1 0.54 70.00 11.2451 0.5987 0 
629 1 0.49 70.00 8.9760 2.1162 0 
630 1 0.46 70.00 13.2270 3.2878 0 
631 1 0.45 70.00 10.6503 4.1617 0 
632 1 0.47 70.00 12.4346 4.7806 0 
633 1 0.49 70.00 15.8712 3.8949 0 
634 1 0.40 70.00 19.8112 2.9358 0 
635 1 0.50 70.00 15.2977 5.4677 0 
636 1 0.47 70.00 7.7876 3.3593 0 
637 1 0.49 70.00 7.5831 3.9803 0 
638 1 0.46 70.00 23.9029 0.9953 0 
639 1 0.50 70.00 27.6796 0.6030 0 
640 1 0.49 70.00 19.0053 5.2094 0 
641 1 0.45 70.00 19.6318 0.8271 0 
642 1 0.42 70.00 15.7444 1.6011 0 
643 1 0.48 70.00 20.1689 5.8892 0 
644 1 0.44 70.00 26.3045 3.0280 0 
645 1 0.47 70.00 22.3393 2.5341 0 
646 1 0.45 70.00 15.6051 3.0815 0 
647 1 0.46 70.00 24.0006 1.3287 0 
648 1 0.39 70.00 11.0567 5.6331 0 
649 1 0.51 70.00 15.7780 4.1550 0 
650 1 0.36 70.00 13.5926 1.8025 0 
651 1 0.48 70.00 20.0516 5.4940 0 
652 1 0.46 70.00 19.3644 5.9926 0 
653 1 0.47 70.00 9.7101 2.4118 0 
654 1 0.48 70.00 19.4104 1.7967 0 
655 1 0.46 70.00 1.2016 0.9905 0 
656 1 0.44 70.00 11.1668 1.6549 0 
657 1 0.50 70.00 9.1277 1.9354 0 
658 1 0.48 70.00 8.4943 3.0959 0 
659 1 0.45 70.00 12.1505 2.7521 0 
660 1 0.47 70.00 0.7433 2.5468 0 
661 1 0.43 70.00 7.8998 3.5641 0 
662 1 0.45 70.00 10.1963 3.1574 0 
663 1 0.50 70.00 3.3564 3.8569 0 
664 1 0.48 70.00 21.2680 4.9135 0 
665 1 0.51 70.00 11.2909 6.7900 0 
666 1 0.42 70.00 26.3038 4.8126 0 
667 1 0.46 70.00 9.9293 5.1253 0 
668 1 0.51 70.00 6.6742 0.8751 0 
669 1 0.46 70.00 6.0098 6.0967 0 
670 1 0.47 70.00 9.2844 4.6917 0 
671 1 0.50 70.00 23.6036 5.7100 0 
672 1 0.48 70.00 6.6338 1.5485 0 
673 1 0.44 70.00 22.4395 2.3422 0 
674 1 0.45 70.00 24.3750 2.9217 0 
675 1 0.49 70.00 22.8490 5.0105 0 
676 1 0.48 70.00 18.6169 2.3553 0 
677 1 0.52 70.00 1.3585 2.4834 0 
678 1 0.46 70.00 4.5585 6.4121 0 
679 1 0.45 70.00 7.1686 5.1796 0 
680 1 0.46 70.00 24.1221 2.9480 0 
681 1 0.46 70.00 3.2764 2.9941 0 
682 1 0.43 70.00 7.2414 4.4249 0 
683 1 0.47 70.00 25.5441 3.5790 0 
684 1 0.45 70.00 26.4584 2.4336 0 
685 1 0.44 70.00 13.0311 2.4509 0 
686 1 0.46 70.00 11.6543 0.5928 0 
687 1 0.52 70.00 18.7203 4.1156 0 
688 1 0.44 70.00 2.3354 4.7751 0 
689 1 0.46 70.00 25.8672 1.2244 0 
690 1 0.50 70.00 9.8360 4.7825 0 
691 1 0.52 70.00 13.8821 3.2313 0 
692 1 0.49 70.00 12.1029 2.9968 0 
693 1 0.44 70.00 22.8447 5.4887 0 
694 1 0.47 70.00 11.5628 2.6139 0 
695 1 0.43 70.00 24.4988 3.6005 0 
696 1 0.47 70.00 3.6849 6.4777 0 
697 1 0.48 70.00 2.4780 2.8843 0 
698 1 0.45 70.00 20.8354 1.7114 0 
699 1 0.46 70.00 6.2319 6.4396 0 
700 1 0.48 70.00 0.6597 3.1792 0 
701 1 0.44 70.00 8.7741 2.9688 0 
702 1 0.50 70.00 25.7961 6.0618 0 
703 1 0.46 70.00 21.9266 6.7920 0 
704 1 0.46 70.00 21.8404 3.5617 0 
705 1 0.42 70.00 4.5170 1.3354 0 
706 1 0.45 70.00 20.4245 4.4759 0 
707 1 0.50 70.00 17.6391 4.2538 0 
708 1 0.45 70.00 18.8054 1.4496 0 
709 1 0.40 70.00 3.8079 1.1043 0 
710 1 0.44 70.00 5.6972 5.2728 0 
711 1 0.47 70.00 13.1520 3.9117 0 
712 1 0.46 70.00 23.3641 3.9320 0 
713 1 0.52 70.00 21.9514 3.2899 0 
714 1 0.48 70.00 13.1078 2.6829 0 
715 1 0.46 70.00 10.2783 5.7317 0 
716 1 0.47 70.00 16.5520 5.2972 0 
717 1 0.47 70.00 4.3141 2.7280 0 
718 1 0.48 70.00 24.1116 6.6834 0 
719 1 0.47 70.00 16.0305 0.8120 0 
720 1 0.44 70.00 13.9555 0.5781 0 
721 1 0.49 70.00 9.0742 1.3677 0 
722 1 0.47 70.00 18.4524 6.7705 0 
723 1 0.41 70.00 2.3640 5.6786 0 
724 1 0.47 70.00 19.5022 3.7441 0 
725 1 0.47 70.00 21.1788 1.7646 0 
726 1 0.50 70.00 23.4238 1.1470 0 
727 1 0.45 70.00 2.9113 4.0260 0 
728 1 0.48 70.00 22.4859 3.3372 0 
729 1 0.49 70.00 4.0749 6.0798 0 
730 1 0.49 70.00 8.5845 3.8046 0 
731 1 0.49 70.00 6.7811 2.5125 0 
732 1 0.47 70.00 19.0145 0.8510 0 
733 1 0.53 70.00 10.0141 0.5700 0 
734 1 0.41 70.00 18.8188 4.5437 0 
735 1 0.48 70.00 15.2811 1.3556 0 
736 1 0.51 70.00 27.4078 2.4158 0 
737 1 0.53 70.00 10.0039 1.3274 0 
738 1 0.51 70.00 22.3981 4.4462 0 
739 1 0.43 70.00 1.8648 2.6810 0 
740 1 0.48 70.00 18.7180 5.4500 0 
741 1 0.49 70.00 16.8144 1.1801 0 
742 1 0.44 70.00 3.5877 2.0073 0 
743 1 0.50 70.00 16.2201 5.6035 0 
744 1 0.43 70.00 22.8066 2.3651 0 
745 1 0.45 70.00 10.8824 6.3648 0 
746 1 0.49 70.00 20.5419 6.6295 0 
747 1 0.44 70.00 6.2543 4.1596 0 
748 1 0.45 70.00 2.0246 1.3410 0 
749 1 0.46 70.00 20.9953 1.5390 0 
750 1 0.51 70.00 19.2896 4.5728 0 
751 1 0.50 70.00 17.3671 1.3502 0 
752 1 0.45 70.00 26.7195 5.3031 0 
753 1 0.51 70.00 18.3317 3.6743 0 
754 1 0.46 70.00 7.9222 6.6688 0 
755 1 0.50 70.00 27.7434 3.8069 0 
756 1 0.48 70.00 25.6437 0.5898 0 
757 1 0.47 70.00 21.3481 5.9684 0 
758 1 0.52 70.00 15.4867 2.3977 0 
759 1 0.46 70.00 23.3714 3.0266 0 
760 1 0.49 70.00 20.6223 1.6798 0 
761 1 0.48 70.00 7.9577 4.8715 0 
762 1 0.46 70.00 15.1290 3.1171 0 
763 1 0.46 70.00 22.6595 3.4432 0 
764 1 0.45 70.00 4.8159 2.4902 0 
765 1 0.45 70.00 24.1311 6.1873 0 
766 1 0.50 70.00 3.2873 0.6636 0 
767 1 0.46 70.00 21.1343 5.4704 0 
768 1 0.42 70.00 15.2481 6.4307 0 
769 1 0.44 70.00 20.0992 5.1819 0 
770 1 0.42 70.00 16.7474 4.3047 0 
771 1 0.42 70.00 5.2627 5.1873 0 
772 1 0.55 70.00 8.8995 6.7553 0 
773 1 0.49 70.00 7.5446 2.1699 0 
774 1 0.52 70.00 3.0118 2.9367 0 
775 1 0.42 70.00 27.0736 3.2744 0 
776 1 0.50 70.00 17.1252 6.6773 0 
777 1 0.48 70.00 5.1285 2.1623 0 
778 1 0.50 70.00 2.2267 1.6075 0 
779 1 0.49 70.00 23.7868 2.0426 0 
780 1 0.49 70.00 11.3080 4.5455 0 
781 1 0.46 70.00 17.2204 2.2644 0 
782 1 0.48 70.00 6.1841 3.1623 0 
783 1 0.41 70.00 11.5362 3.7133 0 
784 1 0.45 70.00 17.0552 1.8562 0 
