# LAMMPS data file for rigid bodies

980 atoms

2 atom types

0.0 	 28.0 	 xlo xhi 
0.0 	 7.0 	 ylo yhi 
-1.0 	 1.0 	 zlo zhi 

Atoms

1 1 0.48 70.00 20.6085 1.8340 0 
2 1 0.49 70.00 25.8559 1.2414 0 
3 1 0.48 70.00 2.6580 3.7049 0 
4 1 0.50 70.00 3.0427 1.3737 0 
5 1 0.44 70.00 6.4708 6.7868 0 
6 1 0.47 70.00 8.3555 2.6814 0 
7 1 0.46 70.00 14.8180 4.4473 0 
8 1 0.47 70.00 14.4553 3.6436 0 
9 1 0.48 70.00 27.5660 4.2545 0 
10 1 0.50 70.00 15.3022 6.6755 0 
11 1 0.49 70.00 25.2502 1.9146 0 
12 1 0.45 70.00 27.4931 5.4056 0 
13 1 0.51 70.00 15.9693 3.8424 0 
14 1 0.48 70.00 11.5659 4.7899 0 
15 1 0.45 70.00 3.2571 3.3141 0 
16 1 0.43 70.00 22.4214 2.8020 0 
17 1 0.52 70.00 0.7560 3.2327 0 
18 1 0.49 70.00 14.1041 6.7248 0 
19 1 0.48 70.00 14.6795 3.3618 0 
20 1 0.48 70.00 13.7330 0.7981 0 
21 1 0.43 70.00 20.0068 4.4690 0 
22 1 0.44 70.00 8.2321 5.4127 0 
23 1 0.48 70.00 6.0081 6.2569 0 
24 1 0.48 70.00 3.7287 0.6856 0 
25 1 0.44 70.00 24.9271 0.9204 0 
26 1 0.49 70.00 5.5563 6.2427 0 
27 1 0.52 70.00 3.5397 4.7527 0 
28 1 0.45 70.00 21.2205 3.0932 0 
29 1 0.50 70.00 4.9870 6.0495 0 
30 1 0.48 70.00 8.5957 5.9964 0 
31 1 0.46 70.00 13.3197 4.8362 0 
32 1 0.48 70.00 15.2540 0.9931 0 
33 1 0.48 70.00 18.2677 3.9631 0 
34 1 0.47 70.00 8.8342 5.5721 0 
35 1 0.45 70.00 26.9625 3.6591 0 
36 1 0.49 70.00 10.0714 6.6313 0 
37 1 0.45 70.00 23.0356 6.3240 0 
38 1 0.49 70.00 12.3310 1.4220 0 
39 1 0.51 70.00 24.3166 3.4981 0 
40 1 0.47 70.00 20.6061 4.6204 0 
41 1 0.46 70.00 19.7076 0.6901 0 
42 1 0.51 70.00 13.8008 3.4120 0 
43 1 0.48 70.00 23.6657 5.7725 0 
44 1 0.55 70.00 26.9729 4.7837 0 
45 1 0.49 70.00 20.6478 5.4411 0 
46 1 0.50 70.00 8.9597 5.2818 0 
47 1 0.44 70.00 9.3332 3.5276 0 
48 1 0.45 70.00 5.4104 3.0862 0 
49 1 0.48 70.00 26.7340 6.2624 0 
50 1 0.44 70.00 22.4338 1.7412 0 
51 1 0.48 70.00 12.8221 4.0537 0 
52 1 0.44 70.00 4.4655 6.5735 0 
53 1 0.44 70.00 4.9752 6.3775 0 
54 1 0.41 70.00 9.6903 0.5253 0 
55 1 0.51 70.00 18.8202 5.2702 0 
56 1 0.46 70.00 26.7649 1.4268 0 
57 1 0.46 70.00 26.1421 6.4423 0 
58 1 0.46 70.00 15.1776 4.9738 0 
59 1 0.45 70.00 13.5024 2.8543 0 
60 1 0.49 70.00 7.7329 5.2768 0 
61 1 0.51 70.00 22.7061 0.5335 0 
62 1 0.48 70.00 27.6532 6.0962 0 
63 1 0.44 70.00 21.6645 4.7559 0 
64 1 0.44 70.00 24.7317 3.6838 0 
65 1 0.49 70.00 1.5120 2.2706 0 
66 1 0.46 70.00 4.4429 4.6812 0 
67 1 0.46 70.00 11.1963 2.4512 0 
68 1 0.50 70.00 25.6175 6.1212 0 
69 1 0.44 70.00 2.0585 5.5418 0 
70 1 0.48 70.00 22.7255 2.1136 0 
71 1 0.48 70.00 21.3380 1.0330 0 
72 1 0.49 70.00 1.0613 5.4631 0 
73 1 0.49 70.00 16.4989 4.4805 0 
74 1 0.43 70.00 22.8912 3.1308 0 
75 1 0.48 70.00 9.9252 3.3286 0 
76 1 0.49 70.00 6.2257 3.0783 0 
77 1 0.42 70.00 25.4530 5.5177 0 
78 1 0.45 70.00 14.1696 1.1349 0 
79 1 0.43 70.00 4.3630 5.4750 0 
80 1 0.46 70.00 9.5636 4.4759 0 
81 1 0.49 70.00 24.2004 3.6797 0 
82 1 0.47 70.00 26.2087 2.1708 0 
83 1 0.45 70.00 13.2821 0.9654 0 
84 1 0.47 70.00 4.1881 3.6996 0 
85 1 0.47 70.00 1.6392 6.2488 0 
86 1 0.48 70.00 25.3965 5.1176 0 
87 1 0.42 70.00 4.1674 1.0716 0 
88 1 0.47 70.00 17.5326 3.1925 0 
89 1 0.47 70.00 3.6183 5.7769 0 
90 1 0.46 70.00 19.4852 2.2381 0 
91 1 0.47 70.00 10.8785 2.8028 0 
92 1 0.51 70.00 4.9531 0.9340 0 
93 1 0.41 70.00 3.8929 1.2147 0 
94 1 0.46 70.00 2.9121 6.0966 0 
95 1 0.47 70.00 4.8233 3.3359 0 
96 1 0.48 70.00 10.7256 6.2656 0 
97 1 0.46 70.00 3.5549 4.2319 0 
98 1 0.53 70.00 17.9185 4.0276 0 
99 1 0.48 70.00 25.1748 5.6359 0 
100 1 0.43 70.00 10.6849 1.0574 0 
101 1 0.40 70.00 25.2455 0.8234 0 
102 1 0.52 70.00 12.3192 1.7037 0 
103 1 0.47 70.00 22.0556 6.1411 0 
104 1 0.48 70.00 21.0923 3.7126 0 
105 1 0.48 70.00 2.4911 2.8189 0 
106 1 0.47 70.00 12.3496 4.1000 0 
107 1 0.51 70.00 1.7550 3.8949 0 
108 1 0.44 70.00 18.7186 1.9281 0 
109 1 0.40 70.00 9.2713 1.6234 0 
110 1 0.54 70.00 19.1950 1.3247 0 
111 1 0.43 70.00 6.0037 4.6262 0 
112 1 0.52 70.00 7.4608 2.5018 0 
113 1 0.48 70.00 27.6740 1.8586 0 
114 1 0.48 70.00 13.7997 4.9377 0 
115 1 0.49 70.00 24.1371 2.3680 0 
116 1 0.43 70.00 3.6936 4.5501 0 
117 1 0.48 70.00 27.7197 5.8173 0 
118 1 0.46 70.00 4.1971 6.5752 0 
119 1 0.50 70.00 6.7937 6.6645 0 
120 1 0.49 70.00 21.1870 6.6446 0 
121 1 0.46 70.00 16.2343 6.1217 0 
122 1 0.42 70.00 12.8954 1.1147 0 
123 1 0.47 70.00 8.2293 4.4169 0 
124 1 0.45 70.00 7.8656 3.1209 0 
125 1 0.46 70.00 8.5212 0.5648 0 
126 1 0.45 70.00 27.2906 6.1848 0 
127 1 0.55 70.00 16.7904 3.9618 0 
128 1 0.48 70.00 8.1125 2.3968 0 
129 1 0.46 70.00 8.5447 5.6733 0 
130 1 0.49 70.00 4.1329 4.8807 0 
131 1 0.46 70.00 10.3592 0.7881 0 
132 1 0.50 70.00 6.6121 6.2945 0 
133 1 0.48 70.00 15.3139 6.1557 0 
134 1 0.48 70.00 12.1354 1.3182 0 
135 1 0.44 70.00 7.2783 5.7135 0 
136 1 0.52 70.00 24.8219 2.7376 0 
137 1 0.51 70.00 3.7848 6.2398 0 
138 1 0.47 70.00 17.2735 2.0594 0 
139 1 0.49 70.00 26.7394 4.8453 0 
140 1 0.47 70.00 17.1706 0.5025 0 
141 1 0.49 70.00 27.7894 3.2697 0 
142 1 0.47 70.00 23.1626 4.1000 0 
143 1 0.48 70.00 3.2452 2.1871 0 
144 1 0.43 70.00 7.0224 3.1340 0 
145 1 0.43 70.00 5.5069 5.5060 0 
146 1 0.44 70.00 12.3144 2.4268 0 
147 1 0.49 70.00 25.7669 1.7410 0 
148 1 0.47 70.00 9.3336 3.2600 0 
149 1 0.47 70.00 21.8629 3.4825 0 
150 1 0.41 70.00 2.1451 0.9932 0 
151 1 0.47 70.00 25.7436 3.1805 0 
152 1 0.47 70.00 16.7775 1.7430 0 
153 1 0.44 70.00 27.4563 2.0711 0 
154 1 0.49 70.00 14.3777 4.3277 0 
155 1 0.51 70.00 18.6451 5.9155 0 
156 1 0.48 70.00 8.6423 5.0295 0 
157 1 0.45 70.00 11.0578 4.3560 0 
158 1 0.46 70.00 16.4401 3.7718 0 
159 1 0.42 70.00 2.3466 5.4346 0 
160 1 0.47 70.00 16.8572 2.2891 0 
161 1 0.49 70.00 11.3322 6.5133 0 
162 1 0.43 70.00 17.0809 6.5864 0 
163 1 0.46 70.00 7.3137 1.7191 0 
164 1 0.41 70.00 17.9002 2.9020 0 
165 1 0.50 70.00 22.7970 1.3722 0 
166 1 0.50 70.00 22.9662 2.8234 0 
167 1 0.47 70.00 7.8479 2.6682 0 
168 1 0.43 70.00 16.8776 1.3176 0 
169 1 0.49 70.00 12.9844 3.4222 0 
170 1 0.45 70.00 3.0759 0.7383 0 
171 1 0.48 70.00 23.0270 1.7110 0 
172 1 0.45 70.00 26.6017 6.0144 0 
173 1 0.48 70.00 19.8691 2.3803 0 
174 1 0.46 70.00 5.3880 1.6781 0 
175 1 0.47 70.00 26.0913 1.2959 0 
176 1 0.43 70.00 16.7122 5.4195 0 
177 1 0.46 70.00 6.7628 2.7373 0 
178 1 0.47 70.00 12.1570 6.7765 0 
179 1 0.51 70.00 8.0382 0.6913 0 
180 1 0.46 70.00 1.3288 5.6906 0 
181 1 0.46 70.00 17.0160 5.6471 0 
182 1 0.46 70.00 11.9705 5.3601 0 
183 1 0.52 70.00 3.7402 2.1644 0 
184 1 0.45 70.00 20.6918 2.5408 0 
185 1 0.46 70.00 22.3595 5.6569 0 
186 1 0.48 70.00 4.5709 6.3260 0 
187 1 0.47 70.00 18.9363 5.7457 0 
188 1 0.46 70.00 9.7051 4.0600 0 
189 1 0.45 70.00 20.1584 5.4796 0 
190 1 0.46 70.00 26.4474 0.5960 0 
191 1 0.55 70.00 9.3564 2.0151 0 
192 1 0.44 70.00 14.2860 0.6863 0 
193 1 0.55 70.00 2.7072 4.0000 0 
194 1 0.49 70.00 9.0954 3.6340 0 
195 1 0.48 70.00 17.1053 1.6870 0 
196 1 0.51 70.00 26.5031 3.4197 0 
197 1 0.42 70.00 25.4826 4.8143 0 
198 1 0.44 70.00 5.6122 4.6529 0 
199 1 0.43 70.00 26.0727 3.3065 0 
200 1 0.43 70.00 2.8029 2.6568 0 
201 1 0.45 70.00 13.3570 1.7957 0 
202 1 0.45 70.00 9.8934 5.1359 0 
203 1 0.54 70.00 1.8098 1.4754 0 
204 1 0.51 70.00 0.9849 1.9869 0 
205 1 0.45 70.00 7.5660 1.9337 0 
206 1 0.51 70.00 23.8928 4.4068 0 
207 1 0.43 70.00 21.4586 4.9349 0 
208 1 0.44 70.00 6.7856 5.4352 0 
209 1 0.47 70.00 11.1019 3.7769 0 
210 1 0.45 70.00 9.7249 2.6958 0 
211 1 0.47 70.00 21.2925 4.1871 0 
212 1 0.46 70.00 4.0942 6.1223 0 
213 1 0.46 70.00 16.6214 0.7455 0 
214 1 0.46 70.00 16.6012 6.7370 0 
215 1 0.47 70.00 13.7011 4.5422 0 
216 1 0.45 70.00 0.7976 0.7920 0 
217 1 0.45 70.00 2.3077 1.4922 0 
218 1 0.46 70.00 25.2861 6.1017 0 
219 1 0.43 70.00 7.4022 1.4431 0 
220 1 0.48 70.00 20.4033 4.4893 0 
221 1 0.49 70.00 23.4947 4.3246 0 
222 1 0.44 70.00 24.8921 1.5694 0 
223 1 0.50 70.00 21.7986 1.8981 0 
224 1 0.50 70.00 15.8821 4.8706 0 
225 1 0.44 70.00 9.8730 1.1191 0 
226 1 0.46 70.00 8.3809 4.6485 0 
227 1 0.48 70.00 2.1982 4.9207 0 
228 1 0.47 70.00 26.0908 2.5681 0 
229 1 0.43 70.00 17.5518 4.9966 0 
230 1 0.46 70.00 3.9338 1.4864 0 
231 1 0.46 70.00 23.9231 2.1828 0 
232 1 0.47 70.00 17.5037 2.7108 0 
233 1 0.47 70.00 18.8493 2.6970 0 
234 1 0.49 70.00 6.6300 5.8080 0 
235 1 0.48 70.00 27.1672 5.1037 0 
236 1 0.52 70.00 19.2573 3.9629 0 
237 1 0.42 70.00 4.2363 5.9552 0 
238 1 0.45 70.00 11.8238 6.4185 0 
239 1 0.49 70.00 11.9745 3.5214 0 
240 1 0.45 70.00 4.3459 1.9486 0 
241 1 0.41 70.00 22.6487 6.2818 0 
242 1 0.44 70.00 9.6322 5.0760 0 
243 1 0.48 70.00 11.7193 2.5161 0 
244 1 0.46 70.00 19.0689 4.5422 0 
245 1 0.48 70.00 11.0270 5.5975 0 
246 1 0.46 70.00 7.7426 4.4649 0 
247 1 0.42 70.00 8.3655 2.2793 0 
248 1 0.43 70.00 17.8510 5.2259 0 
249 1 0.49 70.00 6.3961 4.6179 0 
250 1 0.45 70.00 5.9784 3.1281 0 
251 1 0.51 70.00 7.7644 3.4698 0 
252 1 0.47 70.00 3.0591 2.7739 0 
253 1 0.47 70.00 8.0205 6.2578 0 
254 1 0.48 70.00 4.3897 4.1377 0 
255 1 0.50 70.00 0.8209 2.3557 0 
256 1 0.50 70.00 4.9011 1.6476 0 
257 1 0.44 70.00 3.6091 0.5242 0 
258 1 0.49 70.00 22.5285 1.2450 0 
259 1 0.47 70.00 19.7540 5.3868 0 
260 1 0.43 70.00 25.4079 1.6057 0 
261 1 0.43 70.00 14.1733 0.9190 0 
262 1 0.48 70.00 22.7486 5.6038 0 
263 1 0.49 70.00 16.9210 0.7552 0 
264 1 0.50 70.00 25.1734 4.0405 0 
265 1 0.49 70.00 17.3797 4.6340 0 
266 1 0.48 70.00 22.7574 2.8994 0 
267 1 0.44 70.00 1.8166 5.0885 0 
268 1 0.47 70.00 24.2358 3.3035 0 
269 1 0.53 70.00 23.9856 1.1651 0 
270 1 0.42 70.00 2.4495 0.5882 0 
271 1 0.47 70.00 27.2995 3.5961 0 
272 1 0.41 70.00 15.4985 2.1458 0 
273 1 0.48 70.00 15.9553 2.1853 0 
274 1 0.48 70.00 26.6047 0.7532 0 
275 1 0.50 70.00 9.6779 5.6217 0 
276 1 0.43 70.00 19.0735 0.5762 0 
277 1 0.46 70.00 12.4200 5.5410 0 
278 1 0.47 70.00 8.1569 6.1035 0 
279 1 0.49 70.00 6.0039 0.6867 0 
280 1 0.46 70.00 26.2359 6.0853 0 
281 1 0.42 70.00 7.0501 0.9098 0 
282 1 0.47 70.00 3.4696 5.6196 0 
283 1 0.52 70.00 2.2990 3.4378 0 
284 1 0.45 70.00 23.8465 5.9638 0 
285 1 0.47 70.00 11.2912 5.7079 0 
286 1 0.48 70.00 2.6515 5.0988 0 
287 1 0.47 70.00 15.0630 4.3053 0 
288 1 0.43 70.00 16.5404 3.3141 0 
289 1 0.42 70.00 17.0730 4.8716 0 
290 1 0.44 70.00 24.0539 1.4303 0 
291 1 0.49 70.00 26.7214 2.3160 0 
292 1 0.54 70.00 14.7324 2.3705 0 
293 1 0.49 70.00 4.4350 4.9330 0 
294 1 0.40 70.00 19.2820 5.8019 0 
295 1 0.51 70.00 21.7806 3.9620 0 
296 1 0.44 70.00 21.7310 5.7201 0 
297 1 0.42 70.00 11.4447 3.8736 0 
298 1 0.53 70.00 14.0451 2.4299 0 
299 1 0.45 70.00 21.0040 1.1315 0 
300 1 0.51 70.00 17.8862 1.1453 0 
301 1 0.45 70.00 27.4795 0.6784 0 
302 1 0.42 70.00 20.8286 4.5036 0 
303 1 0.53 70.00 23.3826 2.4177 0 
304 1 0.46 70.00 16.1689 2.7940 0 
305 1 0.42 70.00 5.1307 3.4369 0 
306 1 0.46 70.00 25.4437 2.5056 0 
307 1 0.52 70.00 10.1081 2.5275 0 
308 1 0.49 70.00 17.0473 2.6393 0 
309 1 0.44 70.00 18.4821 6.5783 0 
310 1 0.54 70.00 5.4616 6.0163 0 
311 1 0.48 70.00 17.7611 3.3105 0 
312 1 0.49 70.00 8.9116 3.7829 0 
313 1 0.50 70.00 0.7516 5.8038 0 
314 1 0.45 70.00 25.0440 1.3130 0 
315 1 0.48 70.00 10.2517 2.6818 0 
316 1 0.55 70.00 1.2883 3.3277 0 
317 1 0.48 70.00 14.3460 2.2749 0 
318 1 0.49 70.00 14.3889 6.0735 0 
319 1 0.47 70.00 19.3672 4.4220 0 
320 1 0.44 70.00 13.2602 3.1473 0 
321 1 0.48 70.00 12.8288 3.2826 0 
322 1 0.46 70.00 1.9613 2.0464 0 
323 1 0.46 70.00 22.1550 5.4914 0 
324 1 0.50 70.00 10.8147 2.9952 0 
325 1 0.49 70.00 5.0509 3.1073 0 
326 1 0.47 70.00 23.4908 0.6068 0 
327 1 0.46 70.00 17.8202 4.4246 0 
328 1 0.50 70.00 2.6622 1.5057 0 
329 1 0.48 70.00 9.8831 6.2834 0 
330 1 0.51 70.00 2.4553 1.3313 0 
331 1 0.52 70.00 12.4199 3.1210 0 
332 1 0.46 70.00 10.7170 3.2141 0 
333 1 0.50 70.00 3.1001 4.6920 0 
334 1 0.49 70.00 12.3710 5.3396 0 
335 1 0.46 70.00 15.1028 2.6847 0 
336 1 0.45 70.00 6.1932 4.5074 0 
337 1 0.48 70.00 21.1491 3.3578 0 
338 1 0.45 70.00 22.5140 4.3376 0 
339 1 0.44 70.00 18.6560 5.5149 0 
340 1 0.47 70.00 15.6669 5.4656 0 
341 1 0.50 70.00 15.9340 4.2439 0 
342 1 0.50 70.00 2.0094 5.1881 0 
343 1 0.44 70.00 5.5230 1.0397 0 
344 1 0.44 70.00 18.5398 1.5258 0 
345 1 0.51 70.00 16.1769 5.5329 0 
346 1 0.46 70.00 0.5455 1.9120 0 
347 1 0.44 70.00 5.6739 4.2301 0 
348 1 0.45 70.00 8.5796 3.3889 0 
349 1 0.40 70.00 1.7975 2.4975 0 
350 1 0.53 70.00 24.1833 2.6643 0 
351 1 0.47 70.00 11.2430 0.6744 0 
352 1 0.45 70.00 8.2474 3.6541 0 
353 1 0.48 70.00 18.8248 1.1359 0 
354 1 0.41 70.00 17.4807 0.8496 0 
355 1 0.49 70.00 18.4704 4.3749 0 
356 1 0.49 70.00 21.0650 4.8653 0 
357 1 0.44 70.00 23.4589 2.8352 0 
358 1 0.50 70.00 11.4404 4.4472 0 
359 1 0.49 70.00 21.0195 0.5452 0 
360 1 0.50 70.00 26.5969 5.3368 0 
361 1 0.44 70.00 0.7111 3.6143 0 
362 1 0.49 70.00 9.4910 4.6677 0 
363 1 0.47 70.00 23.6220 1.4984 0 
364 1 0.48 70.00 26.4505 2.0441 0 
365 1 0.45 70.00 12.1975 6.0880 0 
366 1 0.50 70.00 9.0618 1.6833 0 
367 1 0.51 70.00 20.1817 1.2781 0 
368 1 0.45 70.00 5.9241 1.4937 0 
369 1 0.50 70.00 0.7223 4.0842 0 
370 1 0.54 70.00 4.7660 4.0778 0 
371 1 0.50 70.00 23.4053 4.6002 0 
372 1 0.41 70.00 3.5546 1.6831 0 
373 1 0.42 70.00 16.7231 4.3473 0 
374 1 0.45 70.00 17.9131 6.5439 0 
375 1 0.43 70.00 7.3154 1.9280 0 
376 1 0.47 70.00 7.8424 4.2517 0 
377 1 0.48 70.00 6.5117 3.9275 0 
378 1 0.47 70.00 21.7405 6.6932 0 
379 1 0.45 70.00 1.6805 6.7103 0 
380 1 0.50 70.00 4.0015 4.5509 0 
381 1 0.54 70.00 12.7543 5.9315 0 
382 1 0.47 70.00 20.9322 4.0778 0 
383 1 0.49 70.00 10.2855 1.6466 0 
384 1 0.47 70.00 3.6926 5.5133 0 
385 1 0.47 70.00 14.0078 2.1987 0 
386 1 0.44 70.00 7.9676 5.6469 0 
387 1 0.48 70.00 24.2939 6.4633 0 
388 1 0.48 70.00 9.1519 4.6181 0 
389 1 0.43 70.00 13.2625 1.2792 0 
390 1 0.48 70.00 1.9308 1.2562 0 
391 1 0.42 70.00 1.1976 3.1363 0 
392 1 0.44 70.00 24.1099 6.1257 0 
393 1 0.47 70.00 1.8368 3.4253 0 
394 1 0.46 70.00 5.2335 4.2130 0 
395 1 0.46 70.00 1.2202 1.4416 0 
396 1 0.48 70.00 20.4465 3.6940 0 
397 1 0.49 70.00 9.9890 0.7269 0 
398 1 0.46 70.00 4.5359 3.4702 0 
399 1 0.44 70.00 6.3272 1.6928 0 
400 1 0.47 70.00 25.9280 2.1369 0 
401 1 0.46 70.00 21.9729 4.1085 0 
402 1 0.49 70.00 5.4342 3.9666 0 
403 1 0.43 70.00 24.3138 1.1923 0 
404 1 0.43 70.00 3.2467 6.4861 0 
405 1 0.42 70.00 1.5058 1.8967 0 
406 1 0.44 70.00 23.0561 0.9346 0 
407 1 0.43 70.00 2.0855 2.5084 0 
408 1 0.45 70.00 7.4248 5.9310 0 
409 1 0.49 70.00 15.1209 3.7479 0 
410 1 0.43 70.00 7.4946 0.6218 0 
411 1 0.48 70.00 1.0487 2.3487 0 
412 1 0.47 70.00 19.0125 2.8454 0 
413 1 0.43 70.00 8.3081 3.2090 0 
414 1 0.41 70.00 26.2628 3.4450 0 
415 1 0.43 70.00 21.3447 5.3551 0 
416 1 0.43 70.00 18.7892 3.6561 0 
417 1 0.54 70.00 14.8871 3.5437 0 
418 1 0.53 70.00 26.3795 1.0764 0 
419 1 0.40 70.00 27.4193 1.4824 0 
420 1 0.48 70.00 23.2008 5.8915 0 
421 1 0.44 70.00 20.1965 4.6825 0 
422 1 0.45 70.00 16.0593 1.1009 0 
423 1 0.48 70.00 11.5071 2.1998 0 
424 1 0.46 70.00 8.2507 1.3789 0 
425 1 0.50 70.00 16.7296 1.9484 0 
426 1 0.45 70.00 11.0879 4.0051 0 
427 1 0.48 70.00 18.3228 6.7635 0 
428 1 0.48 70.00 19.0234 6.0506 0 
429 1 0.45 70.00 17.2640 3.7953 0 
430 1 0.46 70.00 27.1351 6.5854 0 
431 1 0.52 70.00 11.1800 3.4236 0 
432 1 0.46 70.00 27.0908 2.9311 0 
433 1 0.53 70.00 17.4724 2.3213 0 
434 1 0.48 70.00 1.0347 3.0057 0 
435 1 0.50 70.00 12.8841 1.7103 0 
436 1 0.46 70.00 20.4431 2.3963 0 
437 1 0.46 70.00 25.4350 0.9226 0 
438 1 0.48 70.00 22.5533 6.5470 0 
439 1 0.45 70.00 13.9339 4.2539 0 
440 1 0.50 70.00 21.4238 2.1237 0 
441 1 0.44 70.00 9.6869 6.2226 0 
442 1 0.46 70.00 26.5665 2.8334 0 
443 1 0.46 70.00 0.8499 1.7303 0 
444 1 0.43 70.00 21.7841 0.7518 0 
445 1 0.51 70.00 8.5838 6.3015 0 
446 1 0.45 70.00 15.6778 2.9197 0 
447 1 0.53 70.00 10.6081 5.0129 0 
448 1 0.44 70.00 11.9485 3.3037 0 
449 1 0.47 70.00 24.4943 3.2658 0 
450 1 0.45 70.00 17.6156 4.2410 0 
451 1 0.50 70.00 15.5996 4.2048 0 
452 1 0.48 70.00 26.3265 5.5701 0 
453 1 0.47 70.00 21.4438 3.6220 0 
454 1 0.46 70.00 0.9472 6.0803 0 
455 1 0.47 70.00 11.9221 1.9444 0 
456 1 0.46 70.00 17.9245 4.7893 0 
457 1 0.45 70.00 13.3264 6.0241 0 
458 1 0.47 70.00 13.3979 3.8110 0 
459 1 0.45 70.00 4.9996 0.6030 0 
460 1 0.51 70.00 14.9968 6.7226 0 
461 1 0.44 70.00 17.9789 1.4304 0 
462 1 0.48 70.00 7.0240 2.2489 0 
463 1 0.48 70.00 13.4720 5.3209 0 
464 1 0.45 70.00 3.3648 6.0979 0 
465 1 0.42 70.00 27.0310 3.1751 0 
466 1 0.47 70.00 25.6316 1.3149 0 
467 1 0.42 70.00 3.1424 4.0030 0 
468 1 0.49 70.00 23.4934 1.9311 0 
469 1 0.48 70.00 23.7599 3.5351 0 
470 1 0.45 70.00 20.6317 4.0861 0 
471 1 0.47 70.00 19.7880 5.7735 0 
472 1 0.50 70.00 5.0179 4.3064 0 
473 1 0.49 70.00 24.4851 1.5978 0 
474 1 0.50 70.00 14.6022 2.1801 0 
475 1 0.48 70.00 25.0624 4.6295 0 
476 1 0.49 70.00 24.8496 6.7083 0 
477 1 0.46 70.00 8.4059 2.9910 0 
478 1 0.47 70.00 6.4434 5.6165 0 
479 1 0.42 70.00 9.1354 0.5609 0 
480 1 0.51 70.00 27.1485 5.4221 0 
481 1 0.44 70.00 15.1892 5.3481 0 
482 1 0.42 70.00 2.4811 4.7832 0 
483 1 0.52 70.00 18.4262 3.7920 0 
484 1 0.44 70.00 5.2090 4.8637 0 
485 1 0.46 70.00 13.0021 2.3575 0 
486 1 0.48 70.00 14.7383 5.1057 0 
487 1 0.51 70.00 26.3104 3.1663 0 
488 1 0.44 70.00 19.6577 1.7938 0 
489 1 0.48 70.00 16.2474 5.0090 0 
490 1 0.46 70.00 23.0964 4.4645 0 
491 1 0.49 70.00 1.6333 0.8162 0 
492 1 0.47 70.00 4.5732 3.8993 0 
493 1 0.47 70.00 18.8022 2.2644 0 
494 1 0.45 70.00 7.3092 5.2202 0 
495 1 0.46 70.00 4.9637 3.7612 0 
496 1 0.42 70.00 19.5455 0.8781 0 
497 1 0.49 70.00 16.9231 1.0753 0 
498 1 0.46 70.00 15.4266 4.0300 0 
499 1 0.46 70.00 12.3794 3.3661 0 
500 1 0.48 70.00 18.1259 2.1368 0 
501 1 0.48 70.00 15.5482 5.2457 0 
502 1 0.48 70.00 17.1394 3.2654 0 
503 1 0.47 70.00 14.2755 5.1673 0 
504 1 0.46 70.00 21.5719 5.5081 0 
505 1 0.51 70.00 4.5728 1.4791 0 
506 1 0.49 70.00 24.9050 4.8445 0 
507 1 0.48 70.00 13.0793 1.8103 0 
508 1 0.43 70.00 23.1950 1.9008 0 
509 1 0.41 70.00 20.3612 2.0374 0 
510 1 0.50 70.00 20.8213 3.0032 0 
511 1 0.55 70.00 10.4413 6.3992 0 
512 1 0.41 70.00 5.2238 5.8646 0 
513 1 0.49 70.00 4.6217 0.7663 0 
514 1 0.48 70.00 26.9887 2.0035 0 
515 1 0.48 70.00 11.0996 3.2231 0 
516 1 0.44 70.00 26.4329 2.2751 0 
517 1 0.48 70.00 14.7986 0.8363 0 
518 1 0.49 70.00 16.5369 5.6065 0 
519 1 0.53 70.00 19.4647 3.6399 0 
520 1 0.47 70.00 2.1246 6.0653 0 
521 1 0.48 70.00 1.9314 6.4435 0 
522 1 0.48 70.00 17.2662 5.5039 0 
523 1 0.47 70.00 4.1367 1.2772 0 
524 1 0.50 70.00 11.2219 1.7602 0 
525 1 0.46 70.00 5.8711 4.9833 0 
526 1 0.47 70.00 5.6806 5.6292 0 
527 1 0.49 70.00 13.9829 6.0118 0 
528 1 0.43 70.00 19.9247 1.4560 0 
529 1 0.46 70.00 7.6313 2.3533 0 
530 1 0.45 70.00 7.5575 3.0321 0 
531 1 0.52 70.00 24.1673 6.6658 0 
532 1 0.45 70.00 11.3077 1.1501 0 
533 1 0.48 70.00 0.7797 2.8896 0 
534 1 0.44 70.00 25.5027 3.4800 0 
535 1 0.46 70.00 26.5451 6.7441 0 
536 1 0.47 70.00 18.2396 2.4168 0 
537 1 0.52 70.00 2.0144 3.0274 0 
538 1 0.48 70.00 27.5823 2.9797 0 
539 1 0.46 70.00 2.8602 1.6076 0 
540 1 0.47 70.00 26.4168 4.0230 0 
541 1 0.47 70.00 7.5164 3.9939 0 
542 1 0.48 70.00 20.6217 0.5951 0 
543 1 0.43 70.00 27.1269 0.5597 0 
544 1 0.46 70.00 19.0233 3.1973 0 
545 1 0.51 70.00 2.5068 1.9386 0 
546 1 0.48 70.00 6.1131 3.9506 0 
547 1 0.45 70.00 17.2179 4.3357 0 
548 1 0.51 70.00 9.4339 4.8777 0 
549 1 0.51 70.00 4.9009 5.2805 0 
550 1 0.49 70.00 18.9102 2.4681 0 
551 1 0.44 70.00 8.4308 1.1884 0 
552 1 0.47 70.00 12.9018 5.6682 0 
553 1 0.48 70.00 15.3306 3.1309 0 
554 1 0.47 70.00 16.3524 5.9511 0 
555 1 0.54 70.00 1.3537 1.6792 0 
556 1 0.50 70.00 8.7580 6.7423 0 
557 1 0.48 70.00 14.5600 2.8948 0 
558 1 0.48 70.00 16.4957 6.5078 0 
559 1 0.43 70.00 12.5854 2.2388 0 
560 1 0.43 70.00 27.4818 6.3846 0 
561 1 0.41 70.00 1.5406 3.3519 0 
562 1 0.48 70.00 15.3632 3.6222 0 
563 1 0.48 70.00 18.1559 6.5288 0 
564 1 0.48 70.00 18.6347 0.5719 0 
565 1 0.45 70.00 25.8837 4.4269 0 
566 1 0.52 70.00 15.9111 5.2162 0 
567 1 0.43 70.00 25.7601 3.9906 0 
568 1 0.49 70.00 24.4232 4.6868 0 
569 1 0.47 70.00 12.7312 4.5468 0 
570 1 0.43 70.00 13.7143 5.8993 0 
571 1 0.48 70.00 6.1610 6.4353 0 
572 1 0.48 70.00 13.2251 3.5078 0 
573 1 0.46 70.00 8.6421 2.2089 0 
574 1 0.44 70.00 15.8259 5.7370 0 
575 1 0.49 70.00 27.6657 5.5803 0 
576 1 0.44 70.00 6.1743 6.0675 0 
577 1 0.51 70.00 3.8709 1.8015 0 
578 1 0.46 70.00 14.9563 2.5331 0 
579 1 0.49 70.00 5.5943 5.2069 0 
580 1 0.53 70.00 5.4922 2.2128 0 
581 1 0.47 70.00 9.9929 3.0597 0 
582 1 0.53 70.00 2.1847 6.6884 0 
583 1 0.44 70.00 7.1936 0.5593 0 
584 1 0.39 70.00 4.8512 1.9780 0 
585 1 0.53 70.00 24.1108 6.3451 0 
586 1 0.50 70.00 15.0626 3.3178 0 
587 1 0.49 70.00 8.4106 4.2077 0 
588 1 0.53 70.00 4.3002 5.7232 0 
589 1 0.53 70.00 10.3057 1.0935 0 
590 1 0.49 70.00 25.3458 3.7744 0 
591 1 0.47 70.00 26.1311 0.6318 0 
592 1 0.46 70.00 26.0484 5.5369 0 
593 1 0.44 70.00 19.2195 5.2033 0 
594 1 0.43 70.00 17.2975 5.0564 0 
595 1 0.44 70.00 16.3824 2.7499 0 
596 1 0.45 70.00 9.2656 5.2690 0 
597 1 0.44 70.00 24.2457 0.6135 0 
598 1 0.48 70.00 9.9705 4.2677 0 
599 1 0.54 70.00 16.1709 1.8390 0 
600 1 0.49 70.00 22.0071 4.3156 0 
601 1 0.47 70.00 17.3041 6.0352 0 
602 1 0.45 70.00 18.9448 1.3805 0 
603 1 0.45 70.00 10.5482 4.7790 0 
604 1 0.48 70.00 9.8750 1.4448 0 
605 1 0.43 70.00 26.3835 6.3295 0 
606 1 0.48 70.00 14.3282 3.1690 0 
607 1 0.50 70.00 24.5778 2.9815 0 
608 1 0.48 70.00 15.1203 2.8988 0 
609 1 0.46 70.00 20.9732 4.6656 0 
610 1 0.50 70.00 1.3906 2.6068 0 
611 1 0.48 70.00 25.6516 1.0307 0 
612 1 0.44 70.00 11.2260 2.7563 0 
613 1 0.48 70.00 16.3806 4.6933 0 
614 1 0.43 70.00 19.4445 6.7631 0 
615 1 0.47 70.00 18.4577 2.2875 0 
616 1 0.48 70.00 10.4297 2.8857 0 
617 1 0.50 70.00 18.8728 1.5767 0 
618 1 0.52 70.00 22.1405 2.4553 0 
619 1 0.50 70.00 26.1928 3.6780 0 
620 1 0.48 70.00 0.9558 3.5489 0 
621 1 0.50 70.00 9.0041 3.0437 0 
622 1 0.45 70.00 5.5642 0.7958 0 
623 1 0.44 70.00 27.4424 0.9673 0 
624 1 0.46 70.00 22.6389 5.9893 0 
625 1 0.49 70.00 7.1508 6.0373 0 
626 1 0.48 70.00 6.9478 5.8496 0 
627 1 0.52 70.00 26.0207 5.1198 0 
628 1 0.47 70.00 9.0078 0.7173 0 
629 1 0.50 70.00 25.5891 2.3612 0 
630 1 0.45 70.00 23.0817 4.7950 0 
631 1 0.48 70.00 4.8885 4.9831 0 
632 1 0.46 70.00 10.2850 2.3638 0 
633 1 0.45 70.00 6.1719 5.2174 0 
634 1 0.45 70.00 21.4581 2.8735 0 
635 1 0.53 70.00 22.7954 3.6573 0 
636 1 0.50 70.00 22.4812 3.0229 0 
637 1 0.42 70.00 11.2684 4.2739 0 
638 1 0.48 70.00 17.3356 1.3573 0 
639 1 0.41 70.00 12.8691 0.5976 0 
640 1 0.48 70.00 16.5017 1.9976 0 
641 1 0.49 70.00 15.3565 1.3925 0 
642 1 0.48 70.00 19.7356 6.5674 0 
643 1 0.48 70.00 5.4803 4.9357 0 
644 1 0.45 70.00 27.6474 0.8803 0 
645 1 0.49 70.00 12.1948 2.0025 0 
646 1 0.49 70.00 12.1628 0.5227 0 
647 1 0.52 70.00 21.1838 1.8018 0 
648 1 0.55 70.00 20.8092 4.2550 0 
649 1 0.48 70.00 14.7296 4.2249 0 
650 1 0.45 70.00 9.1166 0.9506 0 
651 1 0.46 70.00 3.7506 5.1995 0 
652 1 0.48 70.00 21.8117 2.3072 0 
653 1 0.49 70.00 20.6288 3.8574 0 
654 1 0.52 70.00 21.0410 0.8479 0 
655 1 0.51 70.00 17.5179 1.5828 0 
656 1 0.48 70.00 25.6771 5.0944 0 
657 1 0.47 70.00 9.2459 6.4597 0 
658 1 0.44 70.00 2.9306 3.8988 0 
659 1 0.50 70.00 21.7705 4.2172 0 
660 1 0.48 70.00 24.5669 6.6253 0 
661 1 0.49 70.00 2.9360 2.2168 0 
662 1 0.53 70.00 13.5966 5.4827 0 
663 1 0.50 70.00 2.8111 4.2207 0 
664 1 0.45 70.00 26.7022 1.8108 0 
665 1 0.47 70.00 27.4623 3.7350 0 
666 1 0.48 70.00 14.7473 1.2077 0 
667 1 0.52 70.00 3.7739 0.9510 0 
668 1 0.49 70.00 7.5579 6.6842 0 
669 1 0.48 70.00 11.1901 1.9599 0 
670 1 0.47 70.00 18.9759 3.7461 0 
671 1 0.51 70.00 13.6264 6.6168 0 
672 1 0.47 70.00 21.5339 0.6791 0 
673 1 0.49 70.00 6.1055 5.4973 0 
674 1 0.51 70.00 6.7314 2.3480 0 
675 1 0.44 70.00 9.7260 3.6928 0 
676 1 0.47 70.00 21.9998 6.4947 0 
677 1 0.48 70.00 20.7800 5.2411 0 
678 1 0.51 70.00 4.5521 3.0622 0 
679 1 0.49 70.00 15.0388 6.1811 0 
680 1 0.47 70.00 5.5814 2.4868 0 
681 1 0.49 70.00 21.3946 6.5079 0 
682 1 0.44 70.00 24.2471 4.3427 0 
683 1 0.45 70.00 3.9969 2.3824 0 
684 1 0.45 70.00 14.6694 6.0527 0 
685 1 0.49 70.00 17.8013 2.1769 0 
686 1 0.42 70.00 27.5968 5.0640 0 
687 1 0.49 70.00 16.8670 4.7549 0 
688 1 0.52 70.00 12.1013 0.7783 0 
689 1 0.45 70.00 21.5414 4.4514 0 
690 1 0.45 70.00 2.9921 3.1875 0 
691 1 0.44 70.00 24.4923 2.1882 0 
692 1 0.46 70.00 20.3557 1.7917 0 
693 1 0.52 70.00 10.3861 3.3198 0 
694 1 0.46 70.00 2.0026 0.5136 0 
695 1 0.46 70.00 21.9229 5.7832 0 
696 1 0.52 70.00 8.9084 3.4351 0 
697 1 0.46 70.00 17.1931 4.5425 0 
698 1 0.46 70.00 10.6104 2.2487 0 
699 1 0.47 70.00 24.9306 0.5046 0 
700 1 0.46 70.00 12.1131 4.7781 0 
701 1 0.46 70.00 20.3289 6.6026 0 
702 1 0.43 70.00 22.0267 3.6390 0 
703 1 0.44 70.00 20.7510 2.0182 0 
704 1 0.48 70.00 27.3747 4.8413 0 
705 1 0.45 70.00 6.9036 1.7913 0 
706 1 0.45 70.00 2.8788 6.7424 0 
707 1 0.46 70.00 5.6966 3.9487 0 
708 1 0.48 70.00 7.2690 3.8230 0 
709 1 0.48 70.00 24.8984 4.1982 0 
710 1 0.51 70.00 18.2169 1.1832 0 
711 1 0.49 70.00 22.2752 4.0550 0 
712 1 0.46 70.00 5.6833 3.3494 0 
713 1 0.44 70.00 13.6726 1.1010 0 
714 1 0.43 70.00 20.1640 1.8598 0 
715 1 0.48 70.00 17.3709 3.4922 0 
716 1 0.46 70.00 11.8553 2.9177 0 
717 1 0.48 70.00 19.6840 5.1340 0 
718 1 0.49 70.00 23.1849 3.5372 0 
719 1 0.43 70.00 24.3167 2.8421 0 
720 1 0.48 70.00 7.6378 5.7714 0 
721 1 0.48 70.00 0.9158 1.0056 0 
722 1 0.44 70.00 5.5327 0.5765 0 
723 1 0.44 70.00 19.8515 1.1352 0 
724 1 0.45 70.00 21.1825 2.6400 0 
725 1 0.48 70.00 14.3059 1.3565 0 
726 1 0.43 70.00 16.1836 4.1092 0 
727 1 0.45 70.00 24.3608 6.2301 0 
728 1 0.41 70.00 11.1472 6.1616 0 
729 1 0.50 70.00 9.0089 4.7911 0 
730 1 0.43 70.00 5.7409 0.5016 0 
731 1 0.43 70.00 7.0723 3.4218 0 
732 1 0.51 70.00 5.1196 6.5321 0 
733 1 0.52 70.00 12.5437 4.2174 0 
734 1 0.46 70.00 19.6011 5.8476 0 
735 1 0.45 70.00 15.6301 1.0545 0 
736 1 0.48 70.00 6.4324 2.3801 0 
737 1 0.45 70.00 7.2271 6.7842 0 
738 1 0.48 70.00 7.6755 1.3657 0 
739 1 0.46 70.00 12.3538 6.3286 0 
740 1 0.49 70.00 20.8091 3.3094 0 
741 1 0.44 70.00 5.2696 1.3022 0 
742 1 0.48 70.00 0.6972 0.5436 0 
743 1 0.49 70.00 9.8648 5.4018 0 
744 1 0.51 70.00 7.9858 1.5590 0 
745 1 0.55 70.00 3.0572 5.8366 0 
746 1 0.52 70.00 13.6745 1.7094 0 
747 1 0.45 70.00 17.6238 1.9960 0 
748 1 0.50 70.00 2.7690 0.9117 0 
749 1 0.50 70.00 22.4354 3.4159 0 
750 1 0.44 70.00 17.8100 3.7311 0 
751 1 0.45 70.00 2.5675 4.3739 0 
752 1 0.46 70.00 10.7135 5.7111 0 
753 1 0.49 70.00 2.0278 4.6401 0 
754 1 0.43 70.00 14.6930 3.0587 0 
755 1 0.43 70.00 3.4956 2.0348 0 
756 1 0.48 70.00 24.5669 0.9573 0 
757 1 0.44 70.00 22.9381 0.7048 0 
758 1 0.52 70.00 23.6188 4.5744 0 
759 1 0.50 70.00 7.3675 1.0061 0 
760 1 0.48 70.00 4.2968 3.4667 0 
761 1 0.50 70.00 27.6108 1.2518 0 
762 1 0.50 70.00 24.8166 6.2141 0 
763 1 0.54 70.00 2.6288 2.3347 0 
764 1 0.49 70.00 20.6043 4.8997 0 
765 1 0.44 70.00 11.6523 3.8981 0 
766 1 0.43 70.00 22.6851 3.0963 0 
767 1 0.46 70.00 23.3195 3.1911 0 
768 1 0.47 70.00 25.6954 2.0218 0 
769 1 0.46 70.00 6.7365 5.1458 0 
770 1 0.44 70.00 18.9937 2.1611 0 
771 1 0.38 70.00 13.5754 4.9531 0 
772 1 0.47 70.00 17.3561 1.1384 0 
773 1 0.42 70.00 4.4175 0.5312 0 
774 1 0.53 70.00 8.8727 5.9725 0 
775 1 0.49 70.00 1.9747 2.8066 0 
776 1 0.46 70.00 4.9597 2.5707 0 
777 1 0.44 70.00 9.0597 2.6495 0 
778 1 0.50 70.00 11.1001 2.9899 0 
779 1 0.47 70.00 6.5458 2.1073 0 
780 1 0.49 70.00 26.4106 5.1378 0 
781 1 0.50 70.00 0.9454 1.4072 0 
782 1 0.48 70.00 9.9925 2.1427 0 
783 1 0.49 70.00 8.1942 0.5442 0 
784 1 0.46 70.00 4.5388 5.8184 0 
785 1 0.51 70.00 9.6264 2.2200 0 
786 1 0.48 70.00 19.2577 2.9695 0 
787 1 0.44 70.00 6.4715 2.8923 0 
788 1 0.47 70.00 27.0491 1.3261 0 
789 1 0.44 70.00 16.6405 4.7553 0 
790 1 0.49 70.00 17.5486 2.9166 0 
791 1 0.50 70.00 12.8662 2.5313 0 
792 1 0.44 70.00 3.3205 4.1311 0 
793 1 0.52 70.00 0.8230 4.8527 0 
794 1 0.42 70.00 0.6570 5.4175 0 
795 1 0.51 70.00 25.7275 2.9697 0 
796 1 0.47 70.00 21.1831 5.5719 0 
797 1 0.47 70.00 4.3408 3.0157 0 
798 1 0.43 70.00 9.7051 0.7792 0 
799 1 0.47 70.00 7.6831 0.7641 0 
800 1 0.48 70.00 11.4628 5.3971 0 
801 1 0.42 70.00 11.7624 3.7260 0 
802 1 0.43 70.00 14.9370 3.0281 0 
803 1 0.46 70.00 13.6266 3.8448 0 
804 1 0.51 70.00 14.3565 2.0394 0 
805 1 0.46 70.00 1.8650 1.7566 0 
806 1 0.49 70.00 19.0691 4.8080 0 
807 1 0.45 70.00 14.5702 4.4966 0 
808 1 0.46 70.00 15.0124 5.1446 0 
809 1 0.51 70.00 25.1954 3.2850 0 
810 1 0.49 70.00 4.5893 0.9761 0 
811 1 0.51 70.00 25.7291 6.5092 0 
812 1 0.46 70.00 18.3599 6.1443 0 
813 1 0.43 70.00 11.4654 3.3075 0 
814 1 0.52 70.00 15.0589 1.1505 0 
815 1 0.46 70.00 7.3785 6.1952 0 
816 1 0.49 70.00 16.9024 6.6796 0 
817 1 0.46 70.00 12.8870 4.8093 0 
818 1 0.54 70.00 10.8604 2.3478 0 
819 1 0.43 70.00 18.6223 1.0076 0 
820 1 0.47 70.00 19.5278 3.0574 0 
821 1 0.46 70.00 25.3364 2.3238 0 
822 1 0.44 70.00 24.9453 2.0692 0 
823 1 0.46 70.00 3.5011 1.2433 0 
824 1 0.44 70.00 17.7632 5.8402 0 
825 1 0.49 70.00 7.1106 5.3691 0 
826 1 0.51 70.00 10.7024 2.6803 0 
827 1 0.47 70.00 17.9485 0.8333 0 
828 1 0.53 70.00 12.6811 5.3451 0 
829 1 0.46 70.00 19.6523 2.7070 0 
830 1 0.45 70.00 22.3927 3.8818 0 
831 1 0.50 70.00 17.7113 5.5747 0 
832 1 0.48 70.00 16.8673 6.4013 0 
833 1 0.52 70.00 12.6351 1.6684 0 
834 1 0.41 70.00 13.4611 3.2373 0 
835 1 0.46 70.00 18.4763 2.6198 0 
836 1 0.41 70.00 12.3621 6.6446 0 
837 1 0.49 70.00 4.6928 0.5055 0 
838 1 0.48 70.00 8.6571 4.5756 0 
839 1 0.45 70.00 21.2585 3.8867 0 
840 1 0.45 70.00 6.3329 4.3483 0 
841 1 0.48 70.00 3.9147 5.5274 0 
842 1 0.54 70.00 22.3072 4.2719 0 
843 1 0.48 70.00 18.4492 3.1288 0 
844 1 0.48 70.00 10.5737 1.3683 0 
845 1 0.41 70.00 13.7261 2.7343 0 
846 1 0.49 70.00 2.5673 5.3082 0 
847 1 0.45 70.00 14.5439 0.6169 0 
848 1 0.52 70.00 10.9971 5.9165 0 
849 1 0.49 70.00 18.9422 6.3352 0 
850 1 0.40 70.00 19.4150 1.6362 0 
851 1 0.47 70.00 8.3859 3.8985 0 
852 1 0.40 70.00 21.5429 1.4753 0 
853 1 0.52 70.00 19.2026 2.4995 0 
854 1 0.44 70.00 14.3504 2.5352 0 
855 1 0.48 70.00 26.4852 4.8416 0 
856 1 0.46 70.00 3.4421 2.5309 0 
857 1 0.49 70.00 6.8295 1.0183 0 
858 1 0.45 70.00 19.2059 3.5180 0 
859 1 0.49 70.00 14.2979 6.2781 0 
860 1 0.51 70.00 24.9739 5.3940 0 
861 1 0.48 70.00 25.6131 2.6209 0 
862 1 0.48 70.00 23.5796 1.0389 0 
863 1 0.44 70.00 5.3757 2.7591 0 
864 1 0.43 70.00 14.8320 5.8033 0 
865 1 0.46 70.00 10.4964 5.9264 0 