# LAMMPS data file for rigid bodies

588 atoms

2 atom types

0.0 	 28.0 	 xlo xhi 
0.0 	 7.0 	 ylo yhi 
-1.0 	 1.0 	 zlo zhi 

Atoms

1 1 0.48 70.00 2.8395 2.9838 0 
2 1 0.49 70.00 18.9983 2.8341 0 
3 1 0.43 70.00 5.2306 6.0274 0 
4 1 0.49 70.00 15.6304 5.9819 0 
5 1 0.44 70.00 10.5694 3.0473 0 
6 1 0.49 70.00 24.7626 1.8876 0 
7 1 0.51 70.00 27.7737 2.8281 0 
8 1 0.45 70.00 21.9843 2.3321 0 
9 1 0.45 70.00 27.1408 0.8626 0 
10 1 0.49 70.00 26.6952 6.2843 0 
11 1 0.48 70.00 1.1868 4.9586 0 
12 1 0.45 70.00 7.7779 2.2455 0 
13 1 0.44 70.00 26.8241 1.1837 0 
14 1 0.47 70.00 6.8608 4.8910 0 
15 1 0.41 70.00 27.1046 2.3031 0 
16 1 0.49 70.00 5.2267 1.1878 0 
17 1 0.47 70.00 14.2986 1.7096 0 
18 1 0.49 70.00 10.2776 2.4585 0 
19 1 0.41 70.00 13.8208 3.1584 0 
20 1 0.50 70.00 1.9873 2.3625 0 
21 1 0.52 70.00 25.3577 4.7085 0 
22 1 0.54 70.00 15.2056 1.0848 0 
23 1 0.48 70.00 22.2159 5.0748 0 
24 1 0.49 70.00 7.8798 4.1301 0 
25 1 0.45 70.00 6.4516 4.4185 0 
26 1 0.51 70.00 25.0609 0.7670 0 
27 1 0.43 70.00 16.2435 4.2381 0 
28 1 0.45 70.00 25.3840 1.1708 0 
29 1 0.47 70.00 10.2171 1.6639 0 
30 1 0.49 70.00 26.3707 2.1020 0 
31 1 0.43 70.00 4.8115 2.1054 0 
32 1 0.42 70.00 4.3329 6.0370 0 
33 1 0.47 70.00 6.8576 2.7918 0 
34 1 0.39 70.00 8.1257 3.8333 0 
35 1 0.40 70.00 20.8314 5.8123 0 
36 1 0.48 70.00 18.9567 1.2953 0 
37 1 0.44 70.00 1.7447 2.0189 0 
38 1 0.45 70.00 7.3073 2.1572 0 
39 1 0.46 70.00 8.4376 1.6513 0 
40 1 0.51 70.00 12.4259 4.1489 0 
41 1 0.51 70.00 3.3638 4.8991 0 
42 1 0.47 70.00 9.2308 3.1633 0 
43 1 0.47 70.00 11.7805 3.5313 0 
44 1 0.48 70.00 25.1945 6.4670 0 
45 1 0.48 70.00 3.4134 0.7123 0 
46 1 0.47 70.00 25.0432 4.9542 0 
47 1 0.49 70.00 2.3533 2.5254 0 
48 1 0.39 70.00 23.8151 4.0354 0 
49 1 0.45 70.00 10.8590 1.1401 0 
50 1 0.47 70.00 6.6498 2.3670 0 
51 1 0.44 70.00 6.9981 4.1474 0 
52 1 0.42 70.00 2.2859 5.7333 0 
53 1 0.44 70.00 5.2888 6.6433 0 
54 1 0.47 70.00 8.4049 3.0335 0 
55 1 0.50 70.00 22.8304 5.8794 0 
56 1 0.44 70.00 24.6495 0.9063 0 
57 1 0.51 70.00 16.7883 3.7509 0 
58 1 0.45 70.00 1.8250 4.5254 0 
59 1 0.47 70.00 18.2648 3.6665 0 
60 1 0.43 70.00 16.6085 2.3549 0 
61 1 0.54 70.00 20.5448 4.8331 0 
62 1 0.49 70.00 17.5006 4.4671 0 
63 1 0.47 70.00 14.3768 0.8767 0 
64 1 0.51 70.00 10.0740 2.6203 0 
65 1 0.42 70.00 5.3617 5.8558 0 
66 1 0.46 70.00 11.7640 5.9766 0 
67 1 0.46 70.00 0.5738 4.6081 0 
68 1 0.45 70.00 6.0023 6.5621 0 
69 1 0.45 70.00 16.2986 5.8449 0 
70 1 0.43 70.00 10.2973 1.3291 0 
71 1 0.48 70.00 7.7135 3.6168 0 
72 1 0.46 70.00 6.4959 1.8041 0 
73 1 0.44 70.00 0.6611 2.1250 0 
74 1 0.46 70.00 4.1225 5.2847 0 
75 1 0.47 70.00 10.3436 1.8230 0 
76 1 0.44 70.00 13.7182 1.3853 0 
77 1 0.45 70.00 4.1546 6.3071 0 
78 1 0.45 70.00 5.3756 2.1793 0 
79 1 0.48 70.00 19.9468 1.7312 0 
80 1 0.49 70.00 24.9166 3.3381 0 
81 1 0.44 70.00 23.3575 4.6257 0 
82 1 0.45 70.00 26.1733 4.7630 0 
83 1 0.46 70.00 18.6788 4.8970 0 
84 1 0.45 70.00 15.3618 4.1057 0 
85 1 0.48 70.00 27.6251 6.7946 0 
86 1 0.45 70.00 21.0670 6.7045 0 
87 1 0.47 70.00 4.0157 3.7800 0 
88 1 0.43 70.00 13.6628 2.0548 0 
89 1 0.46 70.00 27.6744 2.4533 0 
90 1 0.50 70.00 27.4525 3.4275 0 
91 1 0.50 70.00 13.1442 5.4504 0 
92 1 0.54 70.00 9.9197 6.7597 0 
93 1 0.47 70.00 15.3057 4.7119 0 
94 1 0.46 70.00 12.6799 1.3307 0 
95 1 0.47 70.00 1.3502 1.9008 0 
96 1 0.47 70.00 19.0680 1.6005 0 
97 1 0.50 70.00 23.9118 4.4051 0 
98 1 0.45 70.00 23.7481 5.4713 0 
99 1 0.47 70.00 26.7175 3.2293 0 
100 1 0.45 70.00 21.4208 1.0869 0 
101 1 0.49 70.00 6.1523 6.1085 0 
102 1 0.36 70.00 13.3807 1.6384 0 
103 1 0.49 70.00 24.7606 4.8104 0 
104 1 0.49 70.00 8.1584 5.8805 0 
105 1 0.47 70.00 17.5228 6.7590 0 
106 1 0.45 70.00 6.8059 1.3662 0 
107 1 0.41 70.00 16.1063 1.7116 0 
108 1 0.45 70.00 6.3962 2.5586 0 
109 1 0.51 70.00 10.0488 4.0039 0 
110 1 0.42 70.00 7.0284 2.1706 0 
111 1 0.48 70.00 27.2139 3.4278 0 
112 1 0.45 70.00 26.5021 6.7788 0 
113 1 0.49 70.00 18.6347 4.2172 0 
114 1 0.46 70.00 3.0819 1.8501 0 
115 1 0.51 70.00 4.1126 1.5049 0 
116 1 0.45 70.00 27.3391 0.8987 0 
117 1 0.43 70.00 6.6675 6.2640 0 
118 1 0.49 70.00 6.5311 6.5040 0 
119 1 0.48 70.00 10.2672 5.7110 0 
120 1 0.44 70.00 2.6531 1.9717 0 
121 1 0.46 70.00 1.2831 2.4269 0 
122 1 0.45 70.00 10.7501 5.2903 0 
123 1 0.43 70.00 13.3003 2.8672 0 
124 1 0.42 70.00 15.7121 1.5018 0 
125 1 0.48 70.00 7.3847 2.6326 0 
126 1 0.51 70.00 17.1412 2.9902 0 
127 1 0.49 70.00 11.1526 6.0334 0 
128 1 0.48 70.00 17.2879 3.2565 0 
129 1 0.45 70.00 16.9955 6.0869 0 
130 1 0.45 70.00 8.1845 5.1710 0 
131 1 0.46 70.00 5.0504 2.8204 0 
132 1 0.43 70.00 12.0905 0.7646 0 
133 1 0.49 70.00 9.8522 5.6476 0 
134 1 0.42 70.00 2.5131 6.2190 0 
135 1 0.44 70.00 1.3551 6.4322 0 
136 1 0.50 70.00 24.8487 6.3840 0 
137 1 0.47 70.00 15.3632 3.1858 0 
138 1 0.48 70.00 20.0378 6.4439 0 
139 1 0.44 70.00 12.3151 0.9373 0 
140 1 0.47 70.00 18.8728 0.7351 0 
141 1 0.52 70.00 3.2123 5.9542 0 
142 1 0.44 70.00 8.1751 1.2239 0 
143 1 0.46 70.00 26.1056 2.6536 0 
144 1 0.44 70.00 24.2914 1.6444 0 
145 1 0.45 70.00 23.5500 3.2390 0 
146 1 0.46 70.00 9.3927 4.0651 0 
147 1 0.50 70.00 4.7805 2.9859 0 
148 1 0.44 70.00 6.7634 0.6770 0 
149 1 0.48 70.00 7.4962 4.8574 0 
150 1 0.42 70.00 19.0370 6.2791 0 
151 1 0.42 70.00 12.3895 6.4103 0 
152 1 0.47 70.00 5.9567 5.2157 0 
153 1 0.48 70.00 11.4033 1.0940 0 
154 1 0.47 70.00 10.8547 5.5844 0 
155 1 0.52 70.00 23.2198 2.1329 0 
156 1 0.41 70.00 1.0228 1.1533 0 
157 1 0.51 70.00 15.7418 2.4646 0 
158 1 0.45 70.00 1.7944 6.6822 0 
159 1 0.47 70.00 23.6146 2.4841 0 
160 1 0.47 70.00 24.7558 2.0878 0 
161 1 0.47 70.00 9.5792 4.8746 0 
162 1 0.49 70.00 6.1595 3.7375 0 
163 1 0.47 70.00 14.6922 3.6555 0 
164 1 0.49 70.00 6.1238 0.5516 0 
165 1 0.46 70.00 21.3953 4.6866 0 
166 1 0.48 70.00 23.3261 4.0039 0 
167 1 0.49 70.00 10.0053 5.4163 0 
168 1 0.54 70.00 24.9832 1.4155 0 
169 1 0.51 70.00 1.7316 1.6731 0 
170 1 0.51 70.00 23.8005 6.7166 0 
171 1 0.46 70.00 21.7172 2.7789 0 
172 1 0.47 70.00 7.6524 3.2405 0 
173 1 0.52 70.00 4.2291 6.6975 0 
174 1 0.45 70.00 7.3451 6.1630 0 
175 1 0.44 70.00 4.7350 1.8138 0 
176 1 0.48 70.00 15.3781 5.0637 0 
177 1 0.49 70.00 8.2749 6.5552 0 
178 1 0.49 70.00 14.5850 2.8095 0 
179 1 0.46 70.00 6.5977 0.8591 0 
180 1 0.47 70.00 11.5637 5.2806 0 
181 1 0.44 70.00 6.6378 4.6630 0 
182 1 0.46 70.00 22.5732 1.6050 0 
183 1 0.44 70.00 9.0442 3.8325 0 
184 1 0.52 70.00 22.9766 5.7058 0 
185 1 0.44 70.00 20.5033 0.6785 0 
186 1 0.50 70.00 0.7319 4.4451 0 
187 1 0.46 70.00 0.6694 2.8765 0 
188 1 0.46 70.00 9.7191 6.5655 0 
189 1 0.44 70.00 24.6489 4.6070 0 
190 1 0.47 70.00 5.7885 3.3903 0 
191 1 0.49 70.00 17.3375 5.4096 0 
192 1 0.47 70.00 21.7590 6.1782 0 
193 1 0.48 70.00 23.6716 5.0571 0 
194 1 0.46 70.00 1.6269 6.4306 0 
195 1 0.49 70.00 6.4026 5.8055 0 
196 1 0.54 70.00 11.1776 3.6390 0 
197 1 0.44 70.00 9.3001 0.9843 0 
198 1 0.40 70.00 17.4137 6.2276 0 
199 1 0.50 70.00 20.2017 5.6438 0 
200 1 0.53 70.00 10.8886 1.4602 0 
201 1 0.41 70.00 26.8618 4.9718 0 
202 1 0.49 70.00 5.7178 4.2410 0 
203 1 0.46 70.00 15.6071 1.8041 0 
204 1 0.48 70.00 17.5346 5.6752 0 
205 1 0.48 70.00 9.4683 1.9743 0 
206 1 0.48 70.00 19.1268 4.9326 0 
207 1 0.42 70.00 15.4982 2.9434 0 
208 1 0.51 70.00 1.1872 4.3932 0 
209 1 0.50 70.00 17.9295 6.1697 0 
210 1 0.49 70.00 26.5019 1.4891 0 
211 1 0.49 70.00 22.3362 0.5437 0 
212 1 0.44 70.00 22.7819 2.5064 0 
213 1 0.48 70.00 25.9175 1.8917 0 
214 1 0.45 70.00 21.7443 6.5065 0 
215 1 0.49 70.00 13.9835 4.8957 0 
216 1 0.51 70.00 5.3228 2.9708 0 
217 1 0.45 70.00 21.1413 1.2267 0 
218 1 0.44 70.00 6.5837 2.8951 0 
219 1 0.52 70.00 20.2107 2.8201 0 
220 1 0.48 70.00 0.7104 1.7985 0 
221 1 0.52 70.00 8.2449 6.1511 0 
222 1 0.46 70.00 23.7068 4.3750 0 
223 1 0.44 70.00 1.4934 4.8252 0 
224 1 0.47 70.00 21.2095 1.6684 0 
225 1 0.44 70.00 7.3978 6.4134 0 
226 1 0.44 70.00 16.1651 2.9778 0 
227 1 0.47 70.00 21.4183 3.7810 0 
228 1 0.49 70.00 7.8893 1.4357 0 
229 1 0.51 70.00 3.0267 2.0901 0 
230 1 0.41 70.00 10.9477 3.5834 0 
231 1 0.33 70.00 9.2930 6.4931 0 
232 1 0.49 70.00 2.2219 6.3472 0 
233 1 0.51 70.00 16.8319 5.1317 0 
234 1 0.45 70.00 21.5912 3.3979 0 
235 1 0.49 70.00 2.2134 3.9392 0 
236 1 0.46 70.00 15.1734 6.2055 0 
237 1 0.45 70.00 10.8924 6.4486 0 
238 1 0.54 70.00 26.9000 6.1534 0 
239 1 0.46 70.00 23.0478 0.7100 0 
240 1 0.50 70.00 11.9965 5.7216 0 
241 1 0.45 70.00 6.5730 1.1041 0 
242 1 0.50 70.00 25.8716 6.3335 0 
243 1 0.50 70.00 6.6500 5.4497 0 
244 1 0.48 70.00 8.4798 0.9131 0 
245 1 0.52 70.00 20.7820 2.1713 0 
246 1 0.47 70.00 1.5096 1.3989 0 
247 1 0.53 70.00 13.2364 3.7402 0 
248 1 0.46 70.00 12.1402 2.8397 0 
249 1 0.43 70.00 22.1010 5.5892 0 
250 1 0.46 70.00 24.3896 1.8550 0 
251 1 0.48 70.00 4.6580 6.4427 0 
252 1 0.45 70.00 21.5908 0.5184 0 
253 1 0.42 70.00 25.5864 2.2082 0 
254 1 0.50 70.00 10.4797 2.5290 0 
255 1 0.44 70.00 25.4022 2.6381 0 
256 1 0.50 70.00 1.4132 3.4813 0 
257 1 0.46 70.00 24.6082 3.0168 0 
258 1 0.49 70.00 17.6651 3.6768 0 
259 1 0.41 70.00 12.0781 4.7148 0 
260 1 0.47 70.00 15.0350 0.8479 0 
261 1 0.48 70.00 4.6522 2.7985 0 
262 1 0.40 70.00 17.7364 5.2941 0 
263 1 0.50 70.00 6.4693 4.9466 0 
264 1 0.45 70.00 11.2191 4.5989 0 
265 1 0.53 70.00 26.3222 3.9347 0 
266 1 0.42 70.00 2.6272 4.9354 0 
267 1 0.53 70.00 19.2514 5.1588 0 
268 1 0.49 70.00 14.2444 4.5393 0 
269 1 0.44 70.00 22.2252 2.8632 0 
270 1 0.48 70.00 17.9454 2.9049 0 
271 1 0.51 70.00 10.2896 3.1636 0 
272 1 0.49 70.00 27.1309 5.4529 0 
273 1 0.44 70.00 10.7257 4.8492 0 
274 1 0.54 70.00 24.4635 3.5342 0 
275 1 0.49 70.00 23.1407 1.7187 0 
276 1 0.48 70.00 10.4532 3.7200 0 
277 1 0.52 70.00 18.6288 3.7062 0 
278 1 0.48 70.00 5.4664 0.6791 0 
279 1 0.49 70.00 23.9653 5.4596 0 
280 1 0.48 70.00 16.7138 1.6533 0 
281 1 0.49 70.00 13.7441 0.8980 0 
282 1 0.50 70.00 12.0488 5.3354 0 
283 1 0.43 70.00 25.5090 5.6307 0 
284 1 0.48 70.00 20.1961 4.4752 0 
285 1 0.48 70.00 21.7487 4.9179 0 
286 1 0.47 70.00 3.4087 4.6175 0 
287 1 0.44 70.00 23.5063 6.7856 0 
288 1 0.48 70.00 26.8321 0.8549 0 
289 1 0.49 70.00 4.8075 4.3613 0 
290 1 0.48 70.00 17.4085 4.9137 0 
291 1 0.48 70.00 16.1828 1.2747 0 
292 1 0.50 70.00 4.1054 3.0990 0 
293 1 0.52 70.00 15.5442 2.2905 0 
294 1 0.46 70.00 18.2015 5.5250 0 
295 1 0.42 70.00 21.4071 6.3531 0 
296 1 0.55 70.00 22.4969 0.6663 0 
297 1 0.48 70.00 15.1965 3.8271 0 
298 1 0.48 70.00 3.9306 6.2628 0 
299 1 0.53 70.00 1.2854 5.4462 0 
300 1 0.38 70.00 1.4526 5.6326 0 
301 1 0.45 70.00 14.3669 5.3133 0 
302 1 0.48 70.00 4.5196 6.2488 0 
303 1 0.48 70.00 26.7174 4.1161 0 
304 1 0.48 70.00 14.7811 5.1418 0 
305 1 0.51 70.00 10.8643 3.7853 0 
306 1 0.47 70.00 15.3120 3.5863 0 
307 1 0.44 70.00 8.2038 4.5439 0 
308 1 0.45 70.00 22.6692 3.7978 0 
309 1 0.43 70.00 22.0551 3.2591 0 
310 1 0.47 70.00 3.5766 3.9569 0 
311 1 0.47 70.00 13.3486 4.5425 0 
312 1 0.49 70.00 24.2080 3.5104 0 
313 1 0.49 70.00 17.5350 2.9139 0 
314 1 0.47 70.00 27.5980 5.0242 0 
315 1 0.50 70.00 26.7761 4.4078 0 
316 1 0.49 70.00 0.7893 6.4583 0 
317 1 0.47 70.00 18.2858 0.9561 0 
318 1 0.51 70.00 8.0132 3.5992 0 
319 1 0.45 70.00 19.2292 0.9993 0 
320 1 0.50 70.00 22.0689 4.0536 0 
321 1 0.51 70.00 24.6744 2.6083 0 
322 1 0.43 70.00 15.2244 2.2014 0 
323 1 0.47 70.00 18.4712 6.2848 0 
324 1 0.43 70.00 6.9837 3.6374 0 
325 1 0.53 70.00 25.5325 5.3200 0 
326 1 0.46 70.00 20.1342 3.5845 0 
327 1 0.49 70.00 23.3679 0.5489 0 
328 1 0.51 70.00 8.5126 2.0369 0 
329 1 0.49 70.00 23.0260 6.5446 0 
330 1 0.41 70.00 7.9386 5.3899 0 
331 1 0.44 70.00 25.3904 3.4283 0 
332 1 0.41 70.00 26.8778 2.7435 0 
333 1 0.42 70.00 6.4569 2.2496 0 
334 1 0.45 70.00 9.3751 4.7028 0 
335 1 0.44 70.00 3.0942 6.4198 0 
336 1 0.45 70.00 14.8764 5.5056 0 
337 1 0.49 70.00 3.8201 4.6372 0 
338 1 0.47 70.00 19.5750 3.6990 0 
339 1 0.50 70.00 18.2429 5.8163 0 
340 1 0.43 70.00 2.6970 6.0361 0 
341 1 0.47 70.00 4.2873 3.1933 0 
342 1 0.44 70.00 5.9127 4.3102 0 
343 1 0.46 70.00 19.4510 1.4935 0 
344 1 0.48 70.00 26.6035 3.6194 0 
345 1 0.45 70.00 12.9854 2.4473 0 
346 1 0.46 70.00 11.4018 1.4296 0 
347 1 0.52 70.00 9.5314 5.7117 0 
348 1 0.49 70.00 5.9131 3.7262 0 
349 1 0.48 70.00 16.1684 2.5965 0 
350 1 0.51 70.00 3.8040 3.0136 0 
351 1 0.51 70.00 11.2104 5.3172 0 
352 1 0.48 70.00 21.0754 6.4064 0 
353 1 0.48 70.00 2.6224 5.6811 0 
354 1 0.53 70.00 26.1149 0.5806 0 
355 1 0.47 70.00 2.8317 5.1237 0 
356 1 0.48 70.00 13.5695 6.5689 0 
357 1 0.49 70.00 13.3198 2.0446 0 
358 1 0.37 70.00 12.1996 5.9636 0 
359 1 0.52 70.00 13.7160 3.5784 0 
360 1 0.50 70.00 12.9982 1.8202 0 
361 1 0.54 70.00 2.7833 3.1927 0 
362 1 0.46 70.00 9.7549 2.2767 0 
363 1 0.49 70.00 0.8661 5.3953 0 
364 1 0.47 70.00 14.2404 2.7000 0 
365 1 0.46 70.00 20.9480 2.5181 0 
366 1 0.43 70.00 10.9872 6.7742 0 
367 1 0.46 70.00 11.5383 2.2679 0 
368 1 0.47 70.00 15.8939 1.0948 0 
369 1 0.55 70.00 21.3320 5.6655 0 
370 1 0.46 70.00 12.4656 2.1791 0 
371 1 0.44 70.00 9.7179 2.9101 0 
372 1 0.44 70.00 15.2760 2.4737 0 
373 1 0.46 70.00 20.2740 5.2777 0 
374 1 0.45 70.00 18.7286 3.3433 0 
375 1 0.48 70.00 25.4577 6.7787 0 
376 1 0.49 70.00 20.2296 0.7836 0 
377 1 0.52 70.00 11.2791 5.0684 0 
378 1 0.48 70.00 10.7035 2.7956 0 
379 1 0.42 70.00 4.5885 3.9649 0 
380 1 0.46 70.00 5.3950 4.6395 0 
381 1 0.51 70.00 14.7599 1.5593 0 
382 1 0.47 70.00 23.3757 6.4372 0 
383 1 0.45 70.00 8.4190 2.6826 0 
384 1 0.37 70.00 13.4283 3.2809 0 
385 1 0.45 70.00 12.6737 3.5475 0 
386 1 0.44 70.00 10.0342 4.6470 0 
387 1 0.49 70.00 2.3463 4.9088 0 
388 1 0.44 70.00 8.7627 3.8277 0 
389 1 0.47 70.00 23.3776 3.5886 0 
390 1 0.45 70.00 25.9492 4.9448 0 
391 1 0.54 70.00 5.9165 2.8528 0 
392 1 0.49 70.00 11.3074 1.7674 0 
393 1 0.50 70.00 8.2449 1.4660 0 
394 1 0.47 70.00 3.8331 3.4439 0 
395 1 0.54 70.00 23.4495 2.8190 0 
396 1 0.48 70.00 3.8504 5.8000 0 
397 1 0.50 70.00 26.2878 3.4863 0 
398 1 0.44 70.00 5.7129 1.2596 0 
399 1 0.46 70.00 13.2116 3.4439 0 
400 1 0.42 70.00 19.6168 1.3659 0 
401 1 0.43 70.00 24.7693 5.7119 0 
402 1 0.48 70.00 4.2739 3.9633 0 
403 1 0.53 70.00 21.0659 4.3683 0 
404 1 0.49 70.00 24.1732 5.8573 0 
405 1 0.48 70.00 9.6325 1.1933 0 
406 1 0.48 70.00 8.7935 2.5845 0 
407 1 0.45 70.00 2.6966 4.6111 0 
408 1 0.46 70.00 18.8428 4.7312 0 
409 1 0.46 70.00 22.1764 6.6575 0 
410 1 0.49 70.00 23.1078 4.1628 0 
411 1 0.48 70.00 22.2499 1.2659 0 
412 1 0.48 70.00 3.6151 2.5205 0 
413 1 0.49 70.00 7.6946 2.9095 0 
414 1 0.47 70.00 4.4687 6.6871 0 
415 1 0.42 70.00 15.7807 3.4917 0 
416 1 0.47 70.00 7.1764 1.4501 0 
417 1 0.43 70.00 22.4839 5.9864 0 
418 1 0.51 70.00 0.8808 4.2454 0 
419 1 0.42 70.00 6.9820 5.7121 0 
420 1 0.48 70.00 25.5723 2.8766 0 
421 1 0.48 70.00 20.8206 0.7435 0 
422 1 0.46 70.00 20.5960 3.6186 0 
423 1 0.50 70.00 1.4660 0.8929 0 
424 1 0.47 70.00 12.9028 4.8586 0 
425 1 0.45 70.00 25.6095 1.6053 0 
426 1 0.45 70.00 4.5569 5.9493 0 
427 1 0.47 70.00 24.2380 3.0902 0 
428 1 0.49 70.00 6.7980 4.2531 0 
429 1 0.46 70.00 24.5074 4.4501 0 
430 1 0.52 70.00 21.4655 4.2177 0 
431 1 0.45 70.00 1.8275 1.2174 0 
432 1 0.49 70.00 3.3226 5.2133 0 
433 1 0.44 70.00 20.6726 4.4005 0 
434 1 0.53 70.00 8.1078 2.0270 0 
435 1 0.46 70.00 3.6786 5.3236 0 
436 1 0.48 70.00 18.4187 4.8283 0 
437 1 0.45 70.00 22.0667 1.6194 0 
438 1 0.47 70.00 9.7414 4.1469 0 
439 1 0.49 70.00 19.0553 5.4791 0 
440 1 0.43 70.00 7.7320 0.7612 0 
441 1 0.44 70.00 14.7198 3.9036 0 
442 1 0.48 70.00 27.5661 4.6050 0 
443 1 0.47 70.00 21.8001 3.6265 0 
444 1 0.49 70.00 22.4280 2.3985 0 
445 1 0.46 70.00 0.9304 1.7307 0 
446 1 0.48 70.00 20.2779 4.1173 0 
447 1 0.49 70.00 9.6996 0.8726 0 
448 1 0.46 70.00 26.7722 2.2108 0 
449 1 0.55 70.00 17.7327 4.2902 0 
450 1 0.51 70.00 16.4969 5.5946 0 
451 1 0.47 70.00 5.5726 6.0814 0 
452 1 0.52 70.00 7.3842 6.7236 0 
453 1 0.51 70.00 3.9225 4.9335 0 
454 1 0.48 70.00 0.9250 4.5793 0 
455 1 0.50 70.00 4.4493 4.8997 0 
456 1 0.48 70.00 23.8599 1.2855 0 
457 1 0.49 70.00 1.4339 2.8130 0 
458 1 0.49 70.00 13.4356 6.0951 0 
459 1 0.48 70.00 3.6951 1.7700 0 
460 1 0.45 70.00 19.0805 4.3898 0 
461 1 0.43 70.00 0.6383 4.8595 0 
462 1 0.50 70.00 3.2653 2.9385 0 
463 1 0.50 70.00 6.8304 6.7960 0 
464 1 0.44 70.00 5.5185 6.6074 0 
465 1 0.47 70.00 20.4275 3.8177 0 
466 1 0.42 70.00 20.8270 3.8755 0 
467 1 0.52 70.00 16.6537 4.3517 0 
468 1 0.48 70.00 20.6519 3.3098 0 
469 1 0.52 70.00 22.7689 1.2455 0 
470 1 0.44 70.00 15.0932 2.6030 0 
471 1 0.45 70.00 19.5576 0.6410 0 
472 1 0.47 70.00 4.0250 5.5694 0 
473 1 0.48 70.00 21.1441 0.6975 0 
474 1 0.50 70.00 21.4632 6.7277 0 
475 1 0.55 70.00 17.2094 6.7070 0 
476 1 0.48 70.00 8.8917 6.6691 0 
477 1 0.43 70.00 3.6435 6.4075 0 
478 1 0.46 70.00 24.0439 1.0592 0 
479 1 0.51 70.00 7.4422 1.5928 0 
480 1 0.48 70.00 20.1367 3.8011 0 
481 1 0.44 70.00 3.8353 0.8971 0 
482 1 0.41 70.00 1.8220 3.7926 0 
483 1 0.49 70.00 12.3363 5.4426 0 
484 1 0.50 70.00 24.3407 0.8157 0 
485 1 0.51 70.00 9.5355 1.6524 0 
486 1 0.48 70.00 18.6770 0.6041 0 
487 1 0.48 70.00 25.2622 2.9102 0 
488 1 0.45 70.00 19.5920 4.5082 0 
489 1 0.42 70.00 5.3231 1.8230 0 
490 1 0.48 70.00 23.8081 6.3339 0 
491 1 0.46 70.00 8.7519 4.1959 0 
492 1 0.47 70.00 6.0351 2.1767 0 
493 1 0.48 70.00 12.3968 3.5335 0 
494 1 0.40 70.00 26.1604 1.3009 0 
495 1 0.48 70.00 10.3097 2.7156 0 
496 1 0.47 70.00 11.2514 0.7237 0 
497 1 0.49 70.00 10.5245 5.4071 0 
498 1 0.50 70.00 1.9033 4.2992 0 
499 1 0.46 70.00 22.3056 3.6839 0 
500 1 0.50 70.00 24.3385 1.1915 0 
501 1 0.48 70.00 2.5436 2.7765 0 
502 1 0.46 70.00 7.2459 3.1041 0 
503 1 0.50 70.00 15.8205 5.2684 0 
504 1 0.40 70.00 16.1566 5.2004 0 
505 1 0.48 70.00 6.2894 6.5734 0 
506 1 0.48 70.00 9.7237 3.1686 0 
507 1 0.46 70.00 15.7086 4.1945 0 
508 1 0.54 70.00 10.9520 1.8049 0 
509 1 0.41 70.00 15.0756 5.5356 0 
510 1 0.45 70.00 13.4151 1.8383 0 
511 1 0.49 70.00 5.4314 1.3333 0 
512 1 0.43 70.00 10.6360 1.7481 0 
513 1 0.50 70.00 20.2133 4.9543 0 
514 1 0.47 70.00 4.8190 1.4317 0 
515 1 0.47 70.00 24.8325 0.7770 0 
516 1 0.49 70.00 12.2441 5.1969 0 
517 1 0.50 70.00 23.3714 5.9357 0 
518 1 0.48 70.00 22.3591 1.6767 0 
519 1 0.49 70.00 14.2144 0.6032 0 
520 1 0.47 70.00 3.1012 0.7488 0 
521 1 0.45 70.00 26.3321 2.4180 0 
522 1 0.49 70.00 15.9021 1.6917 0 
523 1 0.47 70.00 17.7800 5.9024 0 
524 1 0.52 70.00 9.1503 4.5579 0 
525 1 0.53 70.00 23.1906 3.8420 0 
526 1 0.45 70.00 20.7557 4.9252 0 
527 1 0.45 70.00 26.0601 3.9165 0 
528 1 0.49 70.00 18.0700 2.3707 0 
529 1 0.48 70.00 8.7614 2.0770 0 
530 1 0.46 70.00 17.1305 0.5971 0 
531 1 0.45 70.00 22.5198 4.7326 0 
532 1 0.51 70.00 9.1207 5.1556 0 
533 1 0.44 70.00 8.5399 6.2404 0 
534 1 0.48 70.00 1.3025 3.2860 0 
535 1 0.50 70.00 2.2975 3.0040 0 
536 1 0.48 70.00 19.3006 2.7378 0 
537 1 0.45 70.00 4.0980 2.0438 0 
538 1 0.47 70.00 3.5091 2.2492 0 
539 1 0.47 70.00 9.7812 1.8852 0 
540 1 0.43 70.00 5.3667 5.6506 0 
541 1 0.52 70.00 6.0905 6.3377 0 
542 1 0.50 70.00 4.0149 2.4249 0 
543 1 0.44 70.00 20.6064 5.9718 0 
544 1 0.43 70.00 8.2368 4.9077 0 
545 1 0.52 70.00 18.0463 1.2028 0 
546 1 0.47 70.00 7.0127 0.7236 0 
547 1 0.42 70.00 23.5575 1.1216 0 
548 1 0.45 70.00 9.0836 4.7947 0 
549 1 0.45 70.00 15.8244 6.4564 0 
550 1 0.44 70.00 22.1785 2.1831 0 
551 1 0.52 70.00 12.3330 3.1543 0 
552 1 0.44 70.00 3.7403 6.7423 0 
553 1 0.47 70.00 19.4146 1.9505 0 
554 1 0.45 70.00 3.6839 1.1673 0 
555 1 0.48 70.00 20.7593 1.6565 0 
556 1 0.46 70.00 20.6548 6.7711 0 
557 1 0.45 70.00 17.8118 1.4766 0 
558 1 0.55 70.00 14.0186 6.2372 0 
559 1 0.52 70.00 26.5404 2.4931 0 
560 1 0.50 70.00 18.8968 0.9605 0 
561 1 0.41 70.00 12.7589 5.0828 0 
562 1 0.42 70.00 15.2720 1.6528 0 
563 1 0.41 70.00 10.5522 6.5251 0 
564 1 0.48 70.00 2.0291 4.6699 0 
565 1 0.49 70.00 1.6422 4.2081 0 
566 1 0.45 70.00 8.9031 2.8891 0 
567 1 0.49 70.00 21.1882 5.1317 0 
568 1 0.52 70.00 10.4423 5.1369 0 
569 1 0.44 70.00 26.1361 5.9155 0 
570 1 0.44 70.00 12.5204 1.5477 0 
571 1 0.46 70.00 10.9856 2.5417 0 
572 1 0.45 70.00 3.7077 5.0072 0 
573 1 0.48 70.00 2.9442 6.7718 0 
574 1 0.46 70.00 22.2368 6.2546 0 
575 1 0.44 70.00 3.5207 1.3043 0 
576 1 0.41 70.00 12.8901 6.5341 0 
577 1 0.46 70.00 23.8191 5.9846 0 
578 1 0.42 70.00 4.8747 4.6822 0 
579 1 0.44 70.00 12.0550 1.9104 0 
580 1 0.50 70.00 18.1526 2.0562 0 
581 1 0.42 70.00 18.9816 3.4918 0 
582 1 0.50 70.00 23.0990 4.5515 0 
583 1 0.45 70.00 26.1787 4.3235 0 
584 1 0.51 70.00 3.5000 1.8266 0 
585 1 0.52 70.00 22.3077 4.5534 0 
586 1 0.54 70.00 27.7697 4.7045 0 
587 1 0.49 70.00 25.9263 2.7943 0 
588 1 0.42 70.00 25.4606 0.6625 0 
