# LAMMPS data file for rigid bodies

196 atoms

2 atom types

0.0 	 28.0 	 xlo xhi 
0.0 	 7.0 	 ylo yhi 
-1.0 	 1.0 	 zlo zhi 

Atoms

1 1 0.52 70.00 13.5835 1.4128 0 
2 1 0.44 70.00 27.7643 0.6317 0 
3 1 0.43 70.00 23.2951 1.2413 0 
4 1 0.46 70.00 25.7172 6.5915 0 
5 1 0.48 70.00 16.5382 1.6681 0 
6 1 0.44 70.00 16.2319 3.7908 0 
7 1 0.45 70.00 25.0590 6.5568 0 
8 1 0.45 70.00 24.9012 6.3721 0 
9 1 0.45 70.00 22.6163 2.8380 0 
10 1 0.42 70.00 3.5291 4.9262 0 
11 1 0.50 70.00 20.3179 6.7150 0 
12 1 0.46 70.00 3.9616 1.9365 0 
13 1 0.46 70.00 16.4647 6.0560 0 
14 1 0.48 70.00 19.0950 4.4084 0 
15 1 0.46 70.00 13.2658 5.0727 0 
16 1 0.47 70.00 5.0506 5.7877 0 
17 1 0.49 70.00 27.1366 0.8120 0 
18 1 0.44 70.00 10.1167 4.7234 0 
19 1 0.46 70.00 26.9749 3.8654 0 
20 1 0.46 70.00 17.5215 2.1082 0 
21 1 0.47 70.00 12.3433 1.0497 0 
22 1 0.52 70.00 22.1467 1.2325 0 
23 1 0.47 70.00 15.5020 4.7690 0 
24 1 0.51 70.00 9.8713 1.6662 0 
25 1 0.47 70.00 11.7120 6.5716 0 
26 1 0.39 70.00 21.5216 3.2984 0 
27 1 0.44 70.00 14.1809 4.0611 0 
28 1 0.44 70.00 3.3131 5.0060 0 
29 1 0.47 70.00 8.4985 3.3647 0 
30 1 0.48 70.00 16.5026 5.8109 0 
31 1 0.47 70.00 21.4950 6.4106 0 
32 1 0.40 70.00 8.2465 3.3968 0 
33 1 0.47 70.00 24.4305 3.1158 0 
34 1 0.49 70.00 14.8964 5.8077 0 
35 1 0.48 70.00 2.7099 5.8293 0 
36 1 0.48 70.00 1.9965 5.6383 0 
37 1 0.49 70.00 25.1633 2.2123 0 
38 1 0.48 70.00 26.3884 2.4020 0 
39 1 0.47 70.00 2.7327 4.8955 0 
40 1 0.47 70.00 6.0153 6.3880 0 
41 1 0.46 70.00 2.4924 3.1398 0 
42 1 0.49 70.00 0.9224 4.8100 0 
43 1 0.50 70.00 12.6076 2.9050 0 
44 1 0.46 70.00 11.3230 4.0696 0 
45 1 0.49 70.00 20.7459 6.3942 0 
46 1 0.49 70.00 4.1474 1.3068 0 
47 1 0.49 70.00 13.7760 2.2981 0 
48 1 0.45 70.00 0.9323 1.6306 0 
49 1 0.50 70.00 9.5508 4.5084 0 
50 1 0.46 70.00 13.2684 4.1877 0 
51 1 0.50 70.00 2.2701 4.3651 0 
52 1 0.47 70.00 26.4582 4.8923 0 
53 1 0.45 70.00 8.4304 1.1948 0 
54 1 0.45 70.00 16.4913 5.1531 0 
55 1 0.50 70.00 13.9926 2.2712 0 
56 1 0.50 70.00 4.5415 2.7983 0 
57 1 0.49 70.00 4.4177 4.3820 0 
58 1 0.46 70.00 1.0723 5.6456 0 
59 1 0.46 70.00 20.8184 3.5940 0 
60 1 0.49 70.00 19.6305 0.8071 0 
61 1 0.47 70.00 18.4639 4.6146 0 
62 1 0.46 70.00 19.9009 4.6543 0 
63 1 0.48 70.00 16.0727 1.4258 0 
64 1 0.44 70.00 8.1571 4.0470 0 
65 1 0.49 70.00 14.7840 3.3418 0 
66 1 0.48 70.00 9.7984 2.8029 0 
67 1 0.45 70.00 9.8183 4.4129 0 
68 1 0.46 70.00 21.7906 3.4256 0 
69 1 0.46 70.00 17.1130 5.8211 0 
70 1 0.46 70.00 6.9456 1.8565 0 
71 1 0.46 70.00 3.9869 1.1284 0 
72 1 0.46 70.00 15.5690 3.8750 0 
73 1 0.47 70.00 17.7149 2.8903 0 
74 1 0.44 70.00 26.8064 1.1596 0 
75 1 0.50 70.00 4.0023 5.8003 0 
76 1 0.45 70.00 4.3290 4.5912 0 
77 1 0.42 70.00 0.8181 1.2065 0 
78 1 0.47 70.00 17.5701 3.9048 0 
79 1 0.48 70.00 24.4560 4.6008 0 
80 1 0.46 70.00 24.9585 5.4160 0 
81 1 0.42 70.00 26.7099 4.7833 0 
82 1 0.52 70.00 19.7634 1.2475 0 
83 1 0.46 70.00 26.7351 3.6491 0 
84 1 0.42 70.00 24.7533 0.5737 0 
85 1 0.53 70.00 27.6762 4.2737 0 
86 1 0.56 70.00 14.0077 6.2572 0 
87 1 0.49 70.00 10.5864 3.6028 0 
88 1 0.52 70.00 23.2556 0.8293 0 
89 1 0.48 70.00 11.9713 1.1522 0 
90 1 0.47 70.00 17.2738 2.1351 0 
91 1 0.42 70.00 27.2796 5.3867 0 
92 1 0.47 70.00 27.3948 2.8149 0 
93 1 0.46 70.00 14.3543 5.4432 0 
94 1 0.44 70.00 16.1992 1.8008 0 
95 1 0.46 70.00 8.0775 4.7213 0 
96 1 0.44 70.00 2.9996 3.8548 0 
97 1 0.46 70.00 10.6116 2.0395 0 
98 1 0.53 70.00 27.2321 3.0947 0 
99 1 0.53 70.00 9.8715 2.0332 0 
100 1 0.45 70.00 9.2704 6.2893 0 
101 1 0.49 70.00 21.7638 5.9793 0 
102 1 0.43 70.00 16.7448 4.7380 0 
103 1 0.44 70.00 16.5304 2.2457 0 
104 1 0.41 70.00 9.2196 3.1138 0 
105 1 0.45 70.00 17.1287 4.3644 0 
106 1 0.47 70.00 15.8758 0.8103 0 
107 1 0.47 70.00 13.4986 0.7675 0 
108 1 0.48 70.00 19.6950 1.5177 0 
109 1 0.48 70.00 6.8155 3.2659 0 
110 1 0.51 70.00 16.0609 3.4193 0 
111 1 0.47 70.00 6.3390 3.2641 0 
112 1 0.48 70.00 11.1505 1.0395 0 
113 1 0.49 70.00 18.4030 6.5728 0 
114 1 0.49 70.00 4.6319 5.2929 0 
115 1 0.48 70.00 21.5097 0.8177 0 
116 1 0.42 70.00 21.8827 4.5415 0 
117 1 0.49 70.00 25.7063 3.5897 0 
118 1 0.45 70.00 12.0767 4.0504 0 
119 1 0.41 70.00 24.2940 5.2258 0 
120 1 0.41 70.00 15.7546 3.4132 0 
121 1 0.53 70.00 16.9406 4.1698 0 
122 1 0.46 70.00 5.7641 1.6374 0 
123 1 0.49 70.00 20.1014 0.7096 0 
124 1 0.49 70.00 6.7452 2.6343 0 
125 1 0.47 70.00 14.2976 2.4100 0 
126 1 0.44 70.00 8.1845 1.3845 0 
127 1 0.47 70.00 19.0981 3.8393 0 
128 1 0.44 70.00 18.4057 5.6679 0 
129 1 0.49 70.00 15.9987 0.5257 0 
130 1 0.47 70.00 27.2099 2.4899 0 
131 1 0.47 70.00 9.9056 2.2995 0 
132 1 0.49 70.00 0.7148 3.4071 0 
133 1 0.44 70.00 8.5124 1.9284 0 
134 1 0.50 70.00 23.1602 0.5178 0 
135 1 0.49 70.00 18.8210 1.8515 0 
136 1 0.50 70.00 0.7063 3.1359 0 
137 1 0.53 70.00 1.4998 5.3149 0 
138 1 0.50 70.00 5.0680 5.5457 0 
139 1 0.49 70.00 15.9145 1.8710 0 
140 1 0.46 70.00 25.7622 0.9812 0 
141 1 0.46 70.00 11.5562 0.6025 0 
142 1 0.46 70.00 18.5851 2.2542 0 
143 1 0.50 70.00 10.4734 2.1919 0 
144 1 0.47 70.00 18.2251 2.9893 0 
145 1 0.45 70.00 14.6507 0.7164 0 
146 1 0.50 70.00 19.1524 0.5979 0 
147 1 0.45 70.00 19.4988 5.0702 0 
148 1 0.44 70.00 7.8087 5.5331 0 
149 1 0.51 70.00 11.0025 6.4671 0 
150 1 0.50 70.00 10.8227 5.6328 0 
151 1 0.47 70.00 20.4109 5.8817 0 
152 1 0.47 70.00 16.3467 2.6372 0 
153 1 0.47 70.00 10.8862 3.7905 0 
154 1 0.46 70.00 22.6071 2.0074 0 
155 1 0.47 70.00 25.8620 4.3210 0 
156 1 0.45 70.00 14.6318 3.5350 0 
157 1 0.45 70.00 8.4708 5.8787 0 
158 1 0.44 70.00 18.2162 6.3383 0 
159 1 0.51 70.00 4.3442 5.1526 0 
160 1 0.49 70.00 10.5206 3.0825 0 
161 1 0.43 70.00 16.4771 3.4093 0 
162 1 0.45 70.00 13.6680 5.9794 0 
163 1 0.45 70.00 21.9513 2.5311 0 
164 1 0.50 70.00 3.6045 1.2386 0 
165 1 0.43 70.00 16.7097 5.8138 0 
166 1 0.50 70.00 25.4798 5.7636 0 
167 1 0.46 70.00 14.0674 3.6070 0 
168 1 0.47 70.00 24.4051 6.6783 0 
169 1 0.47 70.00 15.6025 1.4650 0 
170 1 0.46 70.00 7.0546 3.5164 0 
171 1 0.49 70.00 8.7398 5.3391 0 
172 1 0.48 70.00 4.2970 3.0227 0 
173 1 0.48 70.00 16.7259 1.3421 0 
174 1 0.45 70.00 6.8350 3.8325 0 
175 1 0.48 70.00 13.6093 3.1086 0 
176 1 0.49 70.00 16.1889 1.2031 0 
177 1 0.43 70.00 17.0782 2.4603 0 
178 1 0.50 70.00 22.1402 0.7957 0 
179 1 0.41 70.00 23.7800 4.8613 0 
180 1 0.46 70.00 12.6442 0.6627 0 
181 1 0.49 70.00 1.9187 6.6758 0 
182 1 0.43 70.00 14.7220 1.6643 0 
183 1 0.46 70.00 18.6183 5.8464 0 
184 1 0.44 70.00 12.0038 3.8241 0 
185 1 0.48 70.00 24.5052 5.5766 0 
186 1 0.45 70.00 7.1025 2.5034 0 
187 1 0.42 70.00 5.5119 5.8695 0 
188 1 0.44 70.00 17.1749 0.6808 0 
189 1 0.47 70.00 23.9527 6.4623 0 
190 1 0.51 70.00 10.8560 1.6821 0 
191 1 0.46 70.00 17.4015 6.7494 0 
192 1 0.45 70.00 20.6501 2.2257 0 
193 1 0.46 70.00 25.6803 5.9138 0 
194 1 0.46 70.00 12.3623 4.4671 0 
195 1 0.48 70.00 12.6657 2.1530 0 
196 1 0.53 70.00 11.6583 5.2722 0 
