# LAMMPS data file for rigid bodies

392 atoms

2 atom types

0.0 	 28.0 	 xlo xhi 
0.0 	 7.0 	 ylo yhi 
-1.0 	 1.0 	 zlo zhi 

Atoms

1 1 0.47 70.00 27.3450 4.0684 0 
2 1 0.45 70.00 10.4039 2.0819 0 
3 1 0.47 70.00 18.2299 2.3842 0 
4 1 0.48 70.00 18.1763 3.5269 0 
5 1 0.49 70.00 19.9106 3.9050 0 
6 1 0.45 70.00 6.9305 2.0662 0 
7 1 0.46 70.00 10.1148 6.4925 0 
8 1 0.49 70.00 2.1580 1.6444 0 
9 1 0.54 70.00 27.2981 4.6345 0 
10 1 0.49 70.00 10.1887 5.6265 0 
11 1 0.47 70.00 9.8603 3.1830 0 
12 1 0.46 70.00 12.2567 1.5998 0 
13 1 0.49 70.00 6.1581 3.7705 0 
14 1 0.47 70.00 13.7446 3.7076 0 
15 1 0.48 70.00 23.5082 6.5631 0 
16 1 0.46 70.00 4.8070 2.3254 0 
17 1 0.46 70.00 16.1061 6.5613 0 
18 1 0.43 70.00 18.0187 6.7921 0 
19 1 0.49 70.00 26.2359 2.8749 0 
20 1 0.48 70.00 19.7399 5.5919 0 
21 1 0.49 70.00 4.9625 2.1323 0 
22 1 0.46 70.00 22.9884 2.8785 0 
23 1 0.40 70.00 15.8257 2.4077 0 
24 1 0.42 70.00 25.2855 2.1727 0 
25 1 0.45 70.00 4.3636 1.9983 0 
26 1 0.51 70.00 13.0386 3.1486 0 
27 1 0.50 70.00 11.2834 1.5195 0 
28 1 0.42 70.00 13.8681 6.2801 0 
29 1 0.47 70.00 23.4822 1.1994 0 
30 1 0.54 70.00 27.3135 1.7416 0 
31 1 0.48 70.00 6.3056 4.1607 0 
32 1 0.48 70.00 8.7110 4.5221 0 
33 1 0.45 70.00 2.0708 4.9144 0 
34 1 0.50 70.00 3.4061 3.4479 0 
35 1 0.51 70.00 2.7792 2.2385 0 
36 1 0.46 70.00 1.8287 4.5199 0 
37 1 0.47 70.00 5.2417 1.4355 0 
38 1 0.45 70.00 25.8836 4.2507 0 
39 1 0.48 70.00 10.7532 5.9089 0 
40 1 0.44 70.00 27.5639 1.6265 0 
41 1 0.47 70.00 19.7310 4.9893 0 
42 1 0.51 70.00 26.1581 6.0411 0 
43 1 0.41 70.00 25.6918 0.7850 0 
44 1 0.46 70.00 26.3400 4.2685 0 
45 1 0.43 70.00 17.9283 1.3418 0 
46 1 0.49 70.00 5.5615 5.6550 0 
47 1 0.46 70.00 12.7780 2.6315 0 
48 1 0.50 70.00 21.3727 4.7452 0 
49 1 0.47 70.00 9.2124 1.5156 0 
50 1 0.47 70.00 24.4150 5.5414 0 
51 1 0.46 70.00 21.1866 0.9387 0 
52 1 0.51 70.00 1.1276 4.0566 0 
53 1 0.46 70.00 26.4159 2.1724 0 
54 1 0.48 70.00 9.1388 3.2734 0 
55 1 0.50 70.00 8.7485 4.0194 0 
56 1 0.47 70.00 22.9086 6.0811 0 
57 1 0.50 70.00 6.8321 6.3996 0 
58 1 0.46 70.00 1.9995 2.4668 0 
59 1 0.51 70.00 1.4172 6.2555 0 
60 1 0.48 70.00 18.7411 5.9423 0 
61 1 0.52 70.00 17.1405 0.6817 0 
62 1 0.46 70.00 6.1758 2.5919 0 
63 1 0.43 70.00 22.0396 1.6297 0 
64 1 0.46 70.00 2.9490 5.1949 0 
65 1 0.48 70.00 11.8956 2.6473 0 
66 1 0.46 70.00 12.7203 6.0607 0 
67 1 0.43 70.00 26.1796 3.0763 0 
68 1 0.40 70.00 14.6071 0.7503 0 
69 1 0.49 70.00 0.8875 2.0330 0 
70 1 0.49 70.00 11.1239 5.9954 0 
71 1 0.47 70.00 11.2025 0.6398 0 
72 1 0.43 70.00 26.5826 3.8473 0 
73 1 0.45 70.00 0.5849 2.9223 0 
74 1 0.48 70.00 2.7922 6.1952 0 
75 1 0.48 70.00 5.5849 3.8387 0 
76 1 0.49 70.00 21.4879 1.1365 0 
77 1 0.50 70.00 5.8387 6.6832 0 
78 1 0.44 70.00 4.4897 0.9918 0 
79 1 0.48 70.00 6.0118 4.0389 0 
80 1 0.45 70.00 15.6322 1.6837 0 
81 1 0.42 70.00 5.1877 2.2714 0 
82 1 0.47 70.00 4.5194 4.9052 0 
83 1 0.46 70.00 8.5343 0.7171 0 
84 1 0.38 70.00 26.9126 2.3519 0 
85 1 0.49 70.00 24.9445 5.7018 0 
86 1 0.46 70.00 3.5320 3.1795 0 
87 1 0.47 70.00 5.4904 4.2673 0 
88 1 0.49 70.00 26.4868 5.3520 0 
89 1 0.52 70.00 7.2195 5.5912 0 
90 1 0.49 70.00 5.9517 2.2254 0 
91 1 0.49 70.00 9.8115 4.9695 0 
92 1 0.43 70.00 3.1824 4.5903 0 
93 1 0.50 70.00 21.1744 6.7621 0 
94 1 0.49 70.00 1.6121 1.8941 0 
95 1 0.44 70.00 15.2134 1.1765 0 
96 1 0.48 70.00 16.8471 3.9845 0 
97 1 0.45 70.00 6.5311 1.8745 0 
98 1 0.50 70.00 7.7998 5.6754 0 
99 1 0.50 70.00 13.5239 4.1033 0 
100 1 0.46 70.00 27.6323 3.7401 0 
101 1 0.52 70.00 10.6288 6.1864 0 
102 1 0.47 70.00 15.8298 0.5913 0 
103 1 0.52 70.00 9.5200 4.7307 0 
104 1 0.44 70.00 20.3054 1.3524 0 
105 1 0.45 70.00 2.2804 5.3617 0 
106 1 0.49 70.00 10.4988 6.6232 0 
107 1 0.47 70.00 7.0837 3.5770 0 
108 1 0.50 70.00 2.5788 6.7758 0 
109 1 0.47 70.00 15.2937 1.4469 0 
110 1 0.48 70.00 27.7055 0.9548 0 
111 1 0.46 70.00 14.1241 1.8176 0 
112 1 0.50 70.00 26.8196 5.0447 0 
113 1 0.49 70.00 22.8904 3.5538 0 
114 1 0.41 70.00 9.7551 2.1628 0 
115 1 0.43 70.00 20.1185 4.8633 0 
116 1 0.47 70.00 20.1547 5.5927 0 
117 1 0.45 70.00 24.3864 6.4765 0 
118 1 0.44 70.00 25.0596 6.6700 0 
119 1 0.52 70.00 12.9630 5.5012 0 
120 1 0.46 70.00 8.1083 3.0067 0 
121 1 0.47 70.00 7.2067 3.7859 0 
122 1 0.43 70.00 5.5472 3.5085 0 
123 1 0.53 70.00 7.8974 1.4796 0 
124 1 0.49 70.00 16.4711 4.1329 0 
125 1 0.43 70.00 11.8647 1.2784 0 
126 1 0.51 70.00 6.5779 2.4162 0 
127 1 0.49 70.00 20.4417 2.9237 0 
128 1 0.42 70.00 24.4778 2.0918 0 
129 1 0.51 70.00 4.3437 1.5820 0 
130 1 0.43 70.00 2.5196 5.1685 0 
131 1 0.49 70.00 7.7992 0.9660 0 
132 1 0.47 70.00 13.4671 2.5156 0 
133 1 0.42 70.00 14.7530 4.7035 0 
134 1 0.49 70.00 6.7850 3.8997 0 
135 1 0.42 70.00 14.1288 3.9607 0 
136 1 0.47 70.00 21.8920 6.4603 0 
137 1 0.48 70.00 3.8245 6.6136 0 
138 1 0.51 70.00 19.9125 4.7430 0 
139 1 0.47 70.00 22.2399 2.6063 0 
140 1 0.49 70.00 2.5107 4.6608 0 
141 1 0.56 70.00 26.4635 3.5080 0 
142 1 0.40 70.00 14.0154 3.0268 0 
143 1 0.47 70.00 12.5219 4.2058 0 
144 1 0.46 70.00 1.8563 3.3727 0 
145 1 0.52 70.00 3.8848 4.3408 0 
146 1 0.43 70.00 4.2112 0.6392 0 
147 1 0.50 70.00 22.2202 4.2654 0 
148 1 0.45 70.00 20.3729 4.6860 0 
149 1 0.46 70.00 1.1646 5.0300 0 
150 1 0.44 70.00 6.2367 3.9636 0 
151 1 0.50 70.00 12.5743 1.8282 0 
152 1 0.48 70.00 7.5089 3.2015 0 
153 1 0.49 70.00 18.7140 4.8497 0 
154 1 0.50 70.00 23.9077 5.8070 0 
155 1 0.51 70.00 19.8958 6.2156 0 
156 1 0.42 70.00 15.2662 4.9138 0 
157 1 0.49 70.00 19.5077 3.6495 0 
158 1 0.47 70.00 26.6866 2.6262 0 
159 1 0.47 70.00 8.8152 2.0163 0 
160 1 0.44 70.00 2.1190 5.7601 0 
161 1 0.47 70.00 20.6168 3.1089 0 
162 1 0.46 70.00 1.5177 4.5479 0 
163 1 0.45 70.00 1.2009 6.4464 0 
164 1 0.51 70.00 24.5672 2.9463 0 
165 1 0.49 70.00 0.6619 4.6630 0 
166 1 0.50 70.00 16.3520 4.8171 0 
167 1 0.47 70.00 6.0217 5.2811 0 
168 1 0.52 70.00 10.2468 0.9696 0 
169 1 0.45 70.00 16.3556 2.9005 0 
170 1 0.52 70.00 14.5523 5.6844 0 
171 1 0.46 70.00 10.1707 4.2252 0 
172 1 0.44 70.00 21.7588 0.9578 0 
173 1 0.47 70.00 16.9994 6.2184 0 
174 1 0.44 70.00 17.7344 2.6634 0 
175 1 0.47 70.00 27.2452 6.5474 0 
176 1 0.48 70.00 4.0033 2.3170 0 
177 1 0.48 70.00 6.4250 4.7350 0 
178 1 0.50 70.00 7.2580 0.6069 0 
179 1 0.50 70.00 8.1477 1.1469 0 
180 1 0.48 70.00 4.5974 4.3476 0 
181 1 0.53 70.00 26.1812 1.9527 0 
182 1 0.46 70.00 20.9384 5.5124 0 
183 1 0.51 70.00 25.0527 2.7409 0 
184 1 0.44 70.00 16.5952 1.8554 0 
185 1 0.44 70.00 22.8007 0.7530 0 
186 1 0.45 70.00 24.5785 2.6053 0 
187 1 0.46 70.00 9.5900 6.0592 0 
188 1 0.47 70.00 23.5002 3.5445 0 
189 1 0.48 70.00 5.2625 2.6454 0 
190 1 0.45 70.00 6.1517 2.0395 0 
191 1 0.44 70.00 9.4747 0.9988 0 
192 1 0.48 70.00 10.8293 1.2525 0 
193 1 0.45 70.00 24.0803 3.2105 0 
194 1 0.51 70.00 17.6143 5.5115 0 
195 1 0.53 70.00 10.3807 3.2840 0 
196 1 0.44 70.00 12.8866 4.8464 0 
197 1 0.46 70.00 2.2797 4.5102 0 
198 1 0.45 70.00 21.9369 2.1298 0 
199 1 0.43 70.00 19.2394 6.0838 0 
200 1 0.47 70.00 5.2561 4.5650 0 
201 1 0.45 70.00 6.7404 2.5998 0 
202 1 0.50 70.00 18.4287 6.5040 0 
203 1 0.51 70.00 20.5419 6.5398 0 
204 1 0.44 70.00 6.9887 5.6882 0 
205 1 0.50 70.00 13.5233 2.7412 0 
206 1 0.50 70.00 2.7603 1.9027 0 
207 1 0.48 70.00 5.1873 5.5287 0 
208 1 0.50 70.00 8.9945 4.4170 0 
209 1 0.43 70.00 19.5762 1.9995 0 
210 1 0.52 70.00 26.4861 2.9602 0 
211 1 0.48 70.00 8.7679 6.6900 0 
212 1 0.47 70.00 5.7853 4.4503 0 
213 1 0.49 70.00 23.5697 2.6944 0 
214 1 0.47 70.00 20.0092 0.5865 0 
215 1 0.47 70.00 23.1585 4.8914 0 
216 1 0.51 70.00 26.3475 4.8634 0 
217 1 0.48 70.00 10.3122 4.9462 0 
218 1 0.49 70.00 0.5602 1.0488 0 
219 1 0.41 70.00 6.7108 5.4616 0 
220 1 0.43 70.00 12.4921 1.2331 0 
221 1 0.45 70.00 27.2782 1.9984 0 
222 1 0.48 70.00 22.9811 1.0529 0 
223 1 0.46 70.00 3.7650 5.9711 0 
224 1 0.51 70.00 14.2852 2.1404 0 
225 1 0.50 70.00 24.7075 1.8168 0 
226 1 0.47 70.00 16.7108 1.5345 0 
227 1 0.51 70.00 26.3463 6.3015 0 
228 1 0.48 70.00 3.8591 0.8986 0 
229 1 0.44 70.00 21.7885 3.8182 0 
230 1 0.47 70.00 3.3508 0.8078 0 
231 1 0.46 70.00 23.9671 2.8414 0 
232 1 0.47 70.00 3.4320 4.8332 0 
233 1 0.51 70.00 6.4723 5.1384 0 
234 1 0.47 70.00 19.1782 1.8953 0 
235 1 0.41 70.00 16.8157 5.7911 0 
236 1 0.49 70.00 0.9257 5.3213 0 
237 1 0.47 70.00 12.3399 3.8257 0 
238 1 0.46 70.00 4.7473 3.6532 0 
239 1 0.39 70.00 23.0521 6.3405 0 
240 1 0.45 70.00 7.8052 3.0077 0 
241 1 0.46 70.00 5.2552 3.6730 0 
242 1 0.48 70.00 15.3294 2.8824 0 
243 1 0.49 70.00 14.2479 3.1132 0 
244 1 0.44 70.00 21.8142 1.5446 0 
245 1 0.45 70.00 1.1698 1.5215 0 
246 1 0.49 70.00 13.7576 0.7593 0 
247 1 0.48 70.00 3.1429 1.0366 0 
248 1 0.47 70.00 22.5220 1.6060 0 
249 1 0.47 70.00 23.1893 2.7480 0 
250 1 0.48 70.00 1.3239 1.9680 0 
251 1 0.45 70.00 9.5881 1.7391 0 
252 1 0.50 70.00 17.2503 4.5262 0 
253 1 0.44 70.00 9.9944 5.6944 0 
254 1 0.46 70.00 27.0549 0.5668 0 
255 1 0.51 70.00 3.9710 5.6921 0 
256 1 0.47 70.00 18.3671 2.2143 0 
257 1 0.45 70.00 16.4899 2.4855 0 
258 1 0.47 70.00 25.6281 5.7122 0 
259 1 0.52 70.00 19.4877 3.9981 0 
260 1 0.47 70.00 18.8646 0.8952 0 
261 1 0.42 70.00 10.3288 3.9759 0 
262 1 0.48 70.00 25.2751 2.6730 0 
263 1 0.46 70.00 6.0222 3.3089 0 
264 1 0.49 70.00 25.2017 3.0133 0 
265 1 0.45 70.00 24.1275 5.9608 0 
266 1 0.45 70.00 11.0961 3.4653 0 
267 1 0.45 70.00 3.3078 4.4158 0 
268 1 0.46 70.00 20.3783 2.5572 0 
269 1 0.47 70.00 24.2912 4.7907 0 
270 1 0.48 70.00 26.0856 1.1956 0 
271 1 0.47 70.00 3.4969 2.5009 0 
272 1 0.51 70.00 9.0621 6.3431 0 
273 1 0.49 70.00 0.7592 3.6596 0 
274 1 0.46 70.00 25.6451 1.6006 0 
275 1 0.42 70.00 6.7598 4.4966 0 
276 1 0.50 70.00 18.9996 3.0542 0 
277 1 0.46 70.00 19.7361 5.9806 0 
278 1 0.40 70.00 14.8586 0.5472 0 
279 1 0.52 70.00 26.9892 4.4631 0 
280 1 0.50 70.00 5.3431 0.6788 0 
281 1 0.46 70.00 18.1221 0.9628 0 
282 1 0.45 70.00 18.1804 5.4941 0 
283 1 0.41 70.00 8.1747 3.5484 0 
284 1 0.47 70.00 23.5222 4.0731 0 
285 1 0.47 70.00 4.3536 2.8350 0 
286 1 0.43 70.00 2.2237 0.5475 0 
287 1 0.50 70.00 20.2060 5.1130 0 
288 1 0.48 70.00 13.1462 4.4205 0 
289 1 0.45 70.00 4.4443 3.8849 0 
290 1 0.43 70.00 12.1952 4.8122 0 
291 1 0.52 70.00 14.0538 1.0216 0 
292 1 0.48 70.00 23.9149 3.3670 0 
293 1 0.47 70.00 14.2444 1.1575 0 
294 1 0.47 70.00 10.8894 6.1726 0 
295 1 0.48 70.00 12.8888 1.7201 0 
296 1 0.45 70.00 19.2568 2.7959 0 
297 1 0.47 70.00 2.0850 4.3265 0 
298 1 0.46 70.00 14.2926 4.7048 0 
299 1 0.44 70.00 7.6810 2.7797 0 
300 1 0.48 70.00 15.8657 1.1692 0 
301 1 0.50 70.00 3.5230 1.7197 0 
302 1 0.41 70.00 2.8876 4.8326 0 
303 1 0.53 70.00 4.7750 3.0113 0 
304 1 0.43 70.00 26.2558 3.3177 0 
305 1 0.44 70.00 14.4635 5.9374 0 
306 1 0.51 70.00 2.4226 4.9866 0 
307 1 0.49 70.00 16.1948 1.5318 0 
308 1 0.55 70.00 12.2087 4.0380 0 
309 1 0.46 70.00 16.2841 6.2420 0 
310 1 0.44 70.00 19.2956 1.4657 0 
311 1 0.52 70.00 15.9235 0.8968 0 
312 1 0.47 70.00 14.5476 2.5062 0 
313 1 0.48 70.00 21.2005 3.0483 0 
314 1 0.45 70.00 3.2023 6.2261 0 
315 1 0.50 70.00 5.2870 6.6758 0 
316 1 0.43 70.00 14.6124 6.3329 0 
317 1 0.45 70.00 7.1985 0.9004 0 
318 1 0.46 70.00 15.6340 4.0915 0 
319 1 0.51 70.00 22.2277 3.0128 0 
320 1 0.46 70.00 27.4720 4.2244 0 
321 1 0.46 70.00 20.0724 3.6616 0 
322 1 0.43 70.00 27.3539 3.7056 0 
323 1 0.44 70.00 10.7972 6.6646 0 
324 1 0.41 70.00 8.9300 3.9350 0 
325 1 0.48 70.00 17.3274 6.6373 0 
326 1 0.43 70.00 16.9144 2.5380 0 
327 1 0.47 70.00 17.2965 3.0319 0 
328 1 0.41 70.00 14.5507 3.7188 0 
329 1 0.44 70.00 17.2975 5.4452 0 
330 1 0.43 70.00 11.0519 5.0018 0 
331 1 0.47 70.00 5.7826 1.9845 0 
332 1 0.46 70.00 13.5079 1.7827 0 
333 1 0.47 70.00 23.3373 1.4583 0 
334 1 0.46 70.00 18.2991 2.5837 0 
335 1 0.47 70.00 1.3233 3.3139 0 
336 1 0.49 70.00 19.9348 1.6463 0 
337 1 0.43 70.00 23.7901 6.0286 0 
338 1 0.50 70.00 19.6659 2.6236 0 
339 1 0.45 70.00 4.2286 1.2775 0 
340 1 0.47 70.00 27.2263 3.4317 0 
341 1 0.48 70.00 25.0833 3.5658 0 
342 1 0.48 70.00 20.9458 5.7367 0 
343 1 0.42 70.00 14.9248 3.0423 0 
344 1 0.45 70.00 22.4589 5.2370 0 
345 1 0.51 70.00 1.9125 3.8292 0 
346 1 0.45 70.00 26.1412 1.5161 0 
347 1 0.47 70.00 14.3987 6.2802 0 
348 1 0.44 70.00 19.3249 3.0476 0 
349 1 0.47 70.00 23.9371 5.0986 0 
350 1 0.44 70.00 21.4752 3.1780 0 
351 1 0.48 70.00 23.7602 4.5476 0 
352 1 0.50 70.00 23.6158 1.7862 0 
353 1 0.41 70.00 4.4875 6.1238 0 
354 1 0.47 70.00 24.4619 5.1232 0 
355 1 0.53 70.00 12.7358 1.1816 0 
356 1 0.47 70.00 2.4842 5.6362 0 
357 1 0.43 70.00 19.5299 6.7242 0 
358 1 0.50 70.00 16.5141 1.4391 0 
359 1 0.45 70.00 24.3217 0.5785 0 
360 1 0.47 70.00 12.1017 3.1216 0 
361 1 0.44 70.00 11.5373 6.6141 0 
362 1 0.51 70.00 17.9171 4.6175 0 
363 1 0.45 70.00 8.4497 1.5883 0 
364 1 0.47 70.00 21.5086 6.3634 0 
365 1 0.52 70.00 15.5500 5.7656 0 
366 1 0.46 70.00 1.5628 4.1905 0 
367 1 0.46 70.00 12.5344 2.9183 0 
368 1 0.41 70.00 26.7755 4.4151 0 
369 1 0.46 70.00 7.4178 1.7907 0 
370 1 0.46 70.00 1.3813 4.8310 0 
371 1 0.47 70.00 4.5279 1.2964 0 
372 1 0.48 70.00 17.3503 1.1476 0 
373 1 0.50 70.00 8.7973 2.5992 0 
374 1 0.43 70.00 23.2433 5.1318 0 
375 1 0.45 70.00 11.6567 2.9224 0 
376 1 0.46 70.00 7.7272 6.6937 0 
377 1 0.51 70.00 8.1018 1.8290 0 
378 1 0.48 70.00 27.6532 5.3044 0 
379 1 0.50 70.00 8.3797 4.2121 0 
380 1 0.45 70.00 21.9703 2.7300 0 
381 1 0.43 70.00 0.6219 1.6806 0 
382 1 0.49 70.00 7.3892 5.8539 0 
383 1 0.50 70.00 25.0255 5.9492 0 
384 1 0.51 70.00 21.8024 5.3102 0 
385 1 0.44 70.00 5.5376 2.0996 0 
386 1 0.48 70.00 13.1825 5.5062 0 
387 1 0.52 70.00 12.9855 5.8793 0 
388 1 0.46 70.00 4.9080 0.8122 0 
389 1 0.46 70.00 27.3431 6.0934 0 
390 1 0.48 70.00 18.8844 2.1315 0 
391 1 0.43 70.00 15.3664 1.0364 0 
392 1 0.46 70.00 15.0955 4.2721 0 
