# LAMMPS data file for rigid bodies

1176 atoms

2 atom types

0.0 	 28.0 	 xlo xhi 
0.0 	 7.0 	 ylo yhi 
-1.0 	 1.0 	 zlo zhi 

Atoms

1 1 0.49 70.00 10.2932 4.8812 0 
2 1 0.50 70.00 9.3368 4.7230 0 
3 1 0.46 70.00 2.4898 5.6484 0 
4 1 0.48 70.00 11.5837 1.8824 0 
5 1 0.42 70.00 20.5043 3.0712 0 
6 1 0.48 70.00 6.0535 5.0124 0 
7 1 0.45 70.00 3.5457 3.0953 0 
8 1 0.48 70.00 27.6240 1.0358 0 
9 1 0.47 70.00 14.1166 2.8305 0 
10 1 0.49 70.00 18.3668 5.7274 0 
11 1 0.41 70.00 7.9913 1.9463 0 
12 1 0.48 70.00 14.5075 3.4040 0 
13 1 0.51 70.00 3.2047 1.2232 0 
14 1 0.47 70.00 7.6465 1.4722 0 
15 1 0.45 70.00 10.6996 3.0475 0 
16 1 0.53 70.00 25.0689 6.4686 0 
17 1 0.47 70.00 19.6173 1.5876 0 
18 1 0.49 70.00 1.8695 3.0358 0 
19 1 0.43 70.00 0.5731 5.1217 0 
20 1 0.41 70.00 3.4269 3.7813 0 
21 1 0.42 70.00 8.9984 5.3633 0 
22 1 0.48 70.00 15.4239 6.1069 0 
23 1 0.49 70.00 16.8179 3.2519 0 
24 1 0.46 70.00 4.9562 4.9747 0 
25 1 0.46 70.00 2.6600 6.6246 0 
26 1 0.46 70.00 16.0843 6.4275 0 
27 1 0.45 70.00 7.9836 4.1609 0 
28 1 0.45 70.00 26.1794 5.4081 0 
29 1 0.46 70.00 26.2201 1.3282 0 
30 1 0.47 70.00 3.3393 5.6787 0 
31 1 0.51 70.00 3.7028 1.9527 0 
32 1 0.48 70.00 12.9900 4.4533 0 
33 1 0.52 70.00 0.9634 3.6875 0 
34 1 0.48 70.00 22.0585 3.7246 0 
35 1 0.49 70.00 24.8909 4.5496 0 
36 1 0.44 70.00 23.5855 1.1178 0 
37 1 0.40 70.00 9.8774 1.4981 0 
38 1 0.45 70.00 6.8962 4.5720 0 
39 1 0.41 70.00 19.2851 3.6548 0 
40 1 0.44 70.00 8.2124 2.4867 0 
41 1 0.47 70.00 10.6500 4.7667 0 
42 1 0.39 70.00 2.3165 1.6301 0 
43 1 0.47 70.00 17.5745 1.8975 0 
44 1 0.47 70.00 9.2558 2.3052 0 
45 1 0.44 70.00 0.9510 0.8239 0 
46 1 0.48 70.00 15.3739 3.9061 0 
47 1 0.47 70.00 16.0222 3.4973 0 
48 1 0.49 70.00 15.6965 3.5151 0 
49 1 0.46 70.00 6.7065 2.5412 0 
50 1 0.51 70.00 9.7788 4.1304 0 
51 1 0.45 70.00 10.3366 1.3888 0 
52 1 0.41 70.00 11.7363 6.0403 0 
53 1 0.45 70.00 5.5383 5.4024 0 
54 1 0.48 70.00 23.9989 6.1825 0 
55 1 0.44 70.00 7.2237 2.6942 0 
56 1 0.41 70.00 5.4429 1.4008 0 
57 1 0.46 70.00 21.4768 3.3778 0 
58 1 0.44 70.00 20.5780 5.0382 0 
59 1 0.48 70.00 2.1959 5.6763 0 
60 1 0.48 70.00 25.0266 6.7624 0 
61 1 0.48 70.00 5.6421 3.5301 0 
62 1 0.44 70.00 6.4120 4.2256 0 
63 1 0.48 70.00 22.9380 2.4987 0 
64 1 0.52 70.00 4.3995 2.7556 0 
65 1 0.44 70.00 8.7009 2.0569 0 
66 1 0.49 70.00 17.8013 1.1731 0 
67 1 0.48 70.00 27.8000 4.8493 0 
68 1 0.43 70.00 4.4420 4.1074 0 
69 1 0.48 70.00 24.5709 0.6284 0 
70 1 0.43 70.00 22.2824 4.3257 0 
71 1 0.43 70.00 2.0462 3.8699 0 
72 1 0.44 70.00 27.4628 1.4370 0 
73 1 0.49 70.00 13.6666 4.5541 0 
74 1 0.48 70.00 26.1056 0.8334 0 
75 1 0.37 70.00 8.9217 0.9010 0 
76 1 0.48 70.00 15.3532 2.8616 0 
77 1 0.46 70.00 16.3142 4.2719 0 
78 1 0.52 70.00 4.6235 3.9835 0 
79 1 0.50 70.00 19.0181 6.2159 0 
80 1 0.46 70.00 24.4997 6.4720 0 
81 1 0.49 70.00 4.2634 2.1396 0 
82 1 0.44 70.00 5.3262 5.3353 0 
83 1 0.52 70.00 2.1534 6.4966 0 
84 1 0.48 70.00 27.6668 2.0687 0 
85 1 0.43 70.00 4.3668 2.9971 0 
86 1 0.46 70.00 23.4206 1.3869 0 
87 1 0.49 70.00 11.4815 5.0642 0 
88 1 0.44 70.00 1.5314 2.2358 0 
89 1 0.48 70.00 4.2773 4.4825 0 
90 1 0.46 70.00 11.0609 4.2228 0 
91 1 0.43 70.00 19.2197 1.0608 0 
92 1 0.50 70.00 11.1561 3.2634 0 
93 1 0.48 70.00 22.8016 6.7356 0 
94 1 0.44 70.00 7.3140 0.6184 0 
95 1 0.52 70.00 26.0733 1.7939 0 
96 1 0.47 70.00 20.6859 4.6572 0 
97 1 0.48 70.00 3.7201 2.9542 0 
98 1 0.52 70.00 1.0430 6.2219 0 
99 1 0.45 70.00 5.5981 1.9090 0 
100 1 0.49 70.00 23.1368 2.5974 0 
101 1 0.52 70.00 4.9766 3.8661 0 
102 1 0.50 70.00 6.0445 4.3210 0 
103 1 0.49 70.00 4.1457 5.6751 0 
104 1 0.47 70.00 22.9378 4.6644 0 
105 1 0.52 70.00 19.7061 3.8293 0 
106 1 0.44 70.00 3.1493 4.6309 0 
107 1 0.47 70.00 4.5342 5.7999 0 
108 1 0.48 70.00 24.1346 3.2688 0 
109 1 0.53 70.00 6.7966 0.9807 0 
110 1 0.44 70.00 21.0520 3.0281 0 
111 1 0.47 70.00 10.6092 3.3301 0 
112 1 0.49 70.00 13.4774 3.7613 0 
113 1 0.47 70.00 14.1415 5.7749 0 
114 1 0.51 70.00 5.9054 1.8908 0 
115 1 0.51 70.00 25.9071 5.4131 0 
116 1 0.49 70.00 15.0202 6.3437 0 
117 1 0.47 70.00 1.2642 1.3413 0 
118 1 0.45 70.00 16.6857 6.3395 0 
119 1 0.53 70.00 23.3490 4.6644 0 
120 1 0.45 70.00 17.0721 5.9631 0 
121 1 0.46 70.00 15.8299 2.5837 0 
122 1 0.46 70.00 15.7528 4.7418 0 
123 1 0.48 70.00 15.9928 6.1663 0 
124 1 0.53 70.00 5.8980 3.0280 0 
125 1 0.49 70.00 23.5181 3.2223 0 
126 1 0.49 70.00 16.9200 5.1672 0 
127 1 0.49 70.00 6.6973 3.0574 0 
128 1 0.49 70.00 13.7063 3.7038 0 
129 1 0.50 70.00 16.2885 3.3059 0 
130 1 0.46 70.00 22.5619 2.5328 0 
131 1 0.50 70.00 10.9520 3.5134 0 
132 1 0.42 70.00 23.5537 6.1492 0 
133 1 0.47 70.00 23.8176 2.6214 0 
134 1 0.52 70.00 2.2443 3.9509 0 
135 1 0.44 70.00 3.4440 1.7190 0 
136 1 0.45 70.00 18.0753 3.4123 0 
137 1 0.48 70.00 26.7882 3.4515 0 
138 1 0.44 70.00 20.8347 5.5577 0 
139 1 0.52 70.00 17.6138 0.7488 0 
140 1 0.46 70.00 16.6499 2.4217 0 
141 1 0.43 70.00 13.6086 0.7684 0 
142 1 0.45 70.00 19.6146 2.6466 0 
143 1 0.49 70.00 15.5480 0.7671 0 
144 1 0.43 70.00 16.5257 3.4278 0 
145 1 0.44 70.00 4.7246 2.1064 0 
146 1 0.46 70.00 3.7115 4.0406 0 
147 1 0.52 70.00 26.6522 5.7367 0 
148 1 0.38 70.00 15.6107 1.9290 0 
149 1 0.54 70.00 7.7477 4.3260 0 
150 1 0.45 70.00 26.4127 6.7202 0 
151 1 0.46 70.00 3.4889 6.1011 0 
152 1 0.45 70.00 2.7406 1.6680 0 
153 1 0.46 70.00 24.9977 3.0893 0 
154 1 0.51 70.00 8.7906 1.3066 0 
155 1 0.45 70.00 8.2793 4.1297 0 
156 1 0.49 70.00 21.4737 2.0801 0 
157 1 0.45 70.00 4.2603 0.9957 0 
158 1 0.49 70.00 5.8222 1.6668 0 
159 1 0.46 70.00 22.1938 4.6513 0 
160 1 0.50 70.00 18.7131 4.6944 0 
161 1 0.47 70.00 26.7104 6.3614 0 
162 1 0.49 70.00 20.5455 1.0142 0 
163 1 0.48 70.00 14.7609 1.3551 0 
164 1 0.47 70.00 23.3027 3.8900 0 
165 1 0.48 70.00 14.4238 1.2021 0 
166 1 0.54 70.00 9.7588 6.5981 0 
167 1 0.49 70.00 11.6332 1.1039 0 
168 1 0.47 70.00 10.0230 0.9197 0 
169 1 0.43 70.00 5.1196 2.0154 0 
170 1 0.44 70.00 23.4704 0.8684 0 
171 1 0.49 70.00 7.6226 6.4927 0 
172 1 0.46 70.00 2.4722 4.2956 0 
173 1 0.50 70.00 22.5666 0.5040 0 
174 1 0.46 70.00 23.3919 2.4918 0 
175 1 0.52 70.00 9.9697 6.7582 0 
176 1 0.43 70.00 10.0321 3.3885 0 
177 1 0.48 70.00 16.1652 1.4269 0 
178 1 0.41 70.00 7.3350 4.4027 0 
179 1 0.47 70.00 9.9772 4.4206 0 
180 1 0.43 70.00 27.3688 3.7420 0 
181 1 0.47 70.00 18.2612 4.7764 0 
182 1 0.48 70.00 8.6308 0.7608 0 
183 1 0.47 70.00 6.8006 1.9407 0 
184 1 0.51 70.00 26.6794 5.5168 0 
185 1 0.51 70.00 6.7782 0.7014 0 
186 1 0.50 70.00 3.7139 4.2811 0 
187 1 0.45 70.00 22.9673 0.9098 0 
188 1 0.48 70.00 22.0341 4.4480 0 
189 1 0.44 70.00 9.5874 2.8899 0 
190 1 0.49 70.00 11.3246 4.7122 0 
191 1 0.45 70.00 6.6944 6.7104 0 
192 1 0.44 70.00 24.6387 5.6903 0 
193 1 0.51 70.00 3.1109 5.2895 0 
194 1 0.48 70.00 27.1014 1.4531 0 
195 1 0.48 70.00 11.7206 5.0055 0 
196 1 0.47 70.00 11.5109 1.2628 0 
197 1 0.51 70.00 25.3733 5.7775 0 
198 1 0.45 70.00 11.8274 3.0865 0 
199 1 0.50 70.00 27.0282 6.6698 0 
200 1 0.52 70.00 17.5471 6.2263 0 
201 1 0.48 70.00 21.3869 2.7819 0 
202 1 0.43 70.00 15.3904 1.2290 0 
203 1 0.47 70.00 1.3602 6.7856 0 
204 1 0.46 70.00 16.6933 0.9919 0 
205 1 0.49 70.00 6.3100 4.6559 0 
206 1 0.46 70.00 22.7550 3.7491 0 
207 1 0.49 70.00 17.8996 5.2981 0 
208 1 0.46 70.00 16.7853 1.5620 0 
209 1 0.46 70.00 12.3684 0.6577 0 
210 1 0.49 70.00 16.8607 3.9255 0 
211 1 0.48 70.00 6.4038 3.1951 0 
212 1 0.41 70.00 18.8809 5.5574 0 
213 1 0.44 70.00 2.8765 4.5081 0 
214 1 0.44 70.00 16.9195 1.0536 0 
215 1 0.53 70.00 14.5916 4.4864 0 
216 1 0.47 70.00 27.4354 5.2099 0 
217 1 0.47 70.00 7.9991 6.5578 0 
218 1 0.48 70.00 14.9301 6.6221 0 
219 1 0.47 70.00 23.5394 4.5151 0 
220 1 0.48 70.00 21.4406 1.1656 0 
221 1 0.46 70.00 26.8839 1.7151 0 
222 1 0.48 70.00 23.1271 5.1973 0 
223 1 0.47 70.00 20.0484 0.5948 0 
224 1 0.45 70.00 12.6775 6.5043 0 
225 1 0.47 70.00 15.8580 5.4166 0 
226 1 0.47 70.00 21.8819 6.5741 0 
227 1 0.49 70.00 1.6198 5.6818 0 
228 1 0.45 70.00 15.6673 4.4618 0 
229 1 0.49 70.00 16.2399 5.5933 0 
230 1 0.47 70.00 19.8319 0.8128 0 
231 1 0.48 70.00 15.7841 4.2247 0 
232 1 0.46 70.00 1.2313 0.6240 0 
233 1 0.45 70.00 12.0948 4.8654 0 
234 1 0.44 70.00 26.9453 0.9266 0 
235 1 0.47 70.00 22.3392 3.5775 0 
236 1 0.46 70.00 10.6496 5.8124 0 
237 1 0.45 70.00 12.6479 4.8277 0 
238 1 0.44 70.00 7.6664 5.2858 0 
239 1 0.45 70.00 3.0390 2.0943 0 
240 1 0.50 70.00 16.5756 1.5588 0 
241 1 0.51 70.00 12.3221 5.1214 0 
242 1 0.50 70.00 6.3071 2.9651 0 
243 1 0.45 70.00 10.9971 0.7600 0 
244 1 0.45 70.00 8.1634 0.9181 0 
245 1 0.43 70.00 24.7351 2.1625 0 
246 1 0.49 70.00 4.4365 1.1114 0 
247 1 0.47 70.00 11.6686 5.6706 0 
248 1 0.48 70.00 20.0048 1.7009 0 
249 1 0.47 70.00 25.2992 0.5188 0 
250 1 0.47 70.00 3.2856 4.9936 0 
251 1 0.43 70.00 12.1309 0.8458 0 
252 1 0.47 70.00 10.4642 1.9578 0 
253 1 0.45 70.00 4.8755 5.2687 0 
254 1 0.48 70.00 2.9099 3.1596 0 
255 1 0.54 70.00 12.7095 2.6200 0 
256 1 0.40 70.00 13.1874 6.2392 0 
257 1 0.45 70.00 17.1186 0.7386 0 
258 1 0.49 70.00 20.9104 3.6055 0 
259 1 0.48 70.00 19.6396 5.7780 0 
260 1 0.45 70.00 20.1718 5.9853 0 
261 1 0.51 70.00 26.2419 4.2537 0 
262 1 0.50 70.00 9.5730 4.7294 0 
263 1 0.52 70.00 18.7444 2.6465 0 
264 1 0.45 70.00 19.2471 0.5783 0 
265 1 0.51 70.00 17.1822 2.4438 0 
266 1 0.45 70.00 9.9202 0.5340 0 
267 1 0.39 70.00 24.7916 4.8385 0 
268 1 0.50 70.00 8.4279 1.5725 0 
269 1 0.52 70.00 4.4457 6.7690 0 
270 1 0.42 70.00 17.4748 6.4238 0 
271 1 0.44 70.00 12.3547 3.7985 0 
272 1 0.47 70.00 13.3302 1.5944 0 
273 1 0.49 70.00 17.7778 5.0059 0 
274 1 0.51 70.00 26.1964 5.8358 0 
275 1 0.45 70.00 14.4052 5.3628 0 
276 1 0.44 70.00 5.1296 6.0815 0 
277 1 0.53 70.00 16.8516 2.2951 0 
278 1 0.48 70.00 21.9280 3.3726 0 
279 1 0.50 70.00 24.3507 4.4132 0 
280 1 0.42 70.00 13.7540 2.6826 0 
281 1 0.46 70.00 24.9679 5.7673 0 
282 1 0.51 70.00 6.0311 5.7094 0 
283 1 0.45 70.00 18.7878 4.1806 0 
284 1 0.50 70.00 18.8937 0.9022 0 
285 1 0.49 70.00 19.5863 4.8652 0 
286 1 0.49 70.00 25.5318 2.6942 0 
287 1 0.48 70.00 25.5874 0.6808 0 
288 1 0.44 70.00 10.7775 5.2520 0 
289 1 0.47 70.00 15.1271 3.9543 0 
290 1 0.42 70.00 18.4844 3.6866 0 
291 1 0.50 70.00 18.3913 4.4954 0 
292 1 0.48 70.00 1.0806 5.3631 0 
293 1 0.44 70.00 8.9863 3.8773 0 
294 1 0.49 70.00 7.2263 2.1440 0 
295 1 0.45 70.00 2.0416 4.6364 0 
296 1 0.46 70.00 25.7326 2.8159 0 
297 1 0.47 70.00 20.8730 4.3810 0 
298 1 0.49 70.00 1.5958 3.0264 0 
299 1 0.46 70.00 21.7667 2.7782 0 
300 1 0.45 70.00 23.0560 6.2306 0 
301 1 0.49 70.00 23.0402 1.8232 0 
302 1 0.49 70.00 13.4350 2.6851 0 
303 1 0.45 70.00 9.5348 6.6829 0 
304 1 0.47 70.00 22.1486 3.0009 0 
305 1 0.47 70.00 21.6166 6.7601 0 
306 1 0.47 70.00 21.6781 5.7445 0 
307 1 0.48 70.00 3.5448 2.5636 0 
308 1 0.47 70.00 21.1193 5.0115 0 
309 1 0.45 70.00 11.8027 6.2936 0 
310 1 0.51 70.00 17.9367 2.0456 0 
311 1 0.48 70.00 8.8777 6.0231 0 
312 1 0.51 70.00 10.6852 4.0531 0 
313 1 0.46 70.00 27.7075 1.7968 0 
314 1 0.47 70.00 11.7668 0.6852 0 
315 1 0.46 70.00 7.0529 2.2662 0 
316 1 0.45 70.00 8.1819 1.8858 0 
317 1 0.48 70.00 6.9524 4.1040 0 
318 1 0.46 70.00 14.2225 6.5278 0 
319 1 0.44 70.00 16.8495 1.9659 0 
320 1 0.45 70.00 14.8923 4.4382 0 
321 1 0.43 70.00 22.7178 3.9894 0 
322 1 0.47 70.00 13.2696 4.2204 0 
323 1 0.47 70.00 20.3434 5.2307 0 
324 1 0.46 70.00 24.5719 2.3429 0 
325 1 0.49 70.00 14.6316 5.0886 0 
326 1 0.51 70.00 8.8153 2.5865 0 
327 1 0.49 70.00 20.8623 3.1329 0 
328 1 0.48 70.00 2.6419 3.7710 0 
329 1 0.51 70.00 21.0410 5.5777 0 
330 1 0.44 70.00 21.6041 2.5355 0 
331 1 0.48 70.00 7.6565 2.9538 0 
332 1 0.44 70.00 13.7503 5.6230 0 
333 1 0.43 70.00 24.3335 6.3580 0 
334 1 0.39 70.00 8.7738 5.7780 0 
335 1 0.49 70.00 9.7499 2.7570 0 
336 1 0.49 70.00 5.1163 3.2699 0 
337 1 0.48 70.00 6.3876 2.2657 0 
338 1 0.45 70.00 21.5404 0.5270 0 
339 1 0.50 70.00 23.6820 0.8184 0 
340 1 0.48 70.00 23.4302 2.0806 0 
341 1 0.50 70.00 11.6755 2.2833 0 
342 1 0.47 70.00 10.9907 4.8815 0 
343 1 0.48 70.00 21.4209 6.2539 0 
344 1 0.42 70.00 0.5962 0.6188 0 
345 1 0.47 70.00 18.9649 1.1940 0 
346 1 0.45 70.00 25.5835 4.7437 0 
347 1 0.43 70.00 26.4971 5.0914 0 
348 1 0.45 70.00 15.2986 5.3152 0 
349 1 0.47 70.00 3.9235 5.5966 0 
350 1 0.46 70.00 13.9571 0.9149 0 
351 1 0.48 70.00 3.7241 4.7821 0 
352 1 0.50 70.00 15.1482 2.3418 0 
353 1 0.51 70.00 3.8746 1.2981 0 
354 1 0.50 70.00 5.5263 1.1353 0 
355 1 0.46 70.00 15.8834 5.7139 0 
356 1 0.48 70.00 1.8211 5.2567 0 
357 1 0.47 70.00 2.2121 3.6285 0 
358 1 0.53 70.00 10.1093 5.4601 0 
359 1 0.51 70.00 15.4439 4.2282 0 
360 1 0.46 70.00 14.9506 1.8832 0 
361 1 0.47 70.00 10.9100 4.3899 0 
362 1 0.45 70.00 14.3737 6.2332 0 
363 1 0.52 70.00 16.7582 5.4669 0 
364 1 0.46 70.00 4.3636 4.9788 0 
365 1 0.48 70.00 9.7702 4.4948 0 
366 1 0.49 70.00 3.4675 4.2845 0 
367 1 0.47 70.00 25.9121 3.5246 0 
368 1 0.47 70.00 20.1079 0.9688 0 
369 1 0.47 70.00 3.0722 3.3294 0 
370 1 0.47 70.00 12.1240 3.8661 0 
371 1 0.44 70.00 13.4524 1.4138 0 
372 1 0.44 70.00 26.8684 5.9256 0 
373 1 0.47 70.00 21.8935 1.2000 0 
374 1 0.44 70.00 4.2683 3.4006 0 
375 1 0.47 70.00 11.8354 1.8725 0 
376 1 0.48 70.00 19.5793 1.3465 0 
377 1 0.48 70.00 4.6104 6.0910 0 
378 1 0.49 70.00 25.6110 1.9787 0 
379 1 0.49 70.00 14.5917 6.2936 0 
380 1 0.48 70.00 16.2333 5.8339 0 
381 1 0.46 70.00 11.9620 5.8389 0 
382 1 0.44 70.00 26.3485 3.4292 0 
383 1 0.50 70.00 16.3724 1.9090 0 
384 1 0.47 70.00 20.9274 3.9656 0 
385 1 0.46 70.00 9.9388 6.5000 0 
386 1 0.43 70.00 19.3471 5.9378 0 
387 1 0.43 70.00 7.2069 1.2313 0 
388 1 0.49 70.00 0.7080 6.0380 0 
389 1 0.48 70.00 24.2604 3.6712 0 
390 1 0.48 70.00 23.2529 0.8231 0 
391 1 0.51 70.00 10.9763 2.0642 0 
392 1 0.50 70.00 10.5447 0.8582 0 
393 1 0.46 70.00 25.4070 6.0805 0 
394 1 0.49 70.00 7.2241 5.9877 0 
395 1 0.49 70.00 19.4427 4.7218 0 
396 1 0.46 70.00 5.1245 2.6898 0 
397 1 0.46 70.00 12.8051 1.1084 0 
398 1 0.44 70.00 0.5785 3.6612 0 
399 1 0.47 70.00 4.2458 2.4405 0 
400 1 0.45 70.00 9.1705 2.4968 0 
401 1 0.37 70.00 3.1839 6.0431 0 
402 1 0.41 70.00 18.3948 0.9134 0 
403 1 0.49 70.00 19.0495 2.5507 0 
404 1 0.45 70.00 14.6148 5.3377 0 
405 1 0.46 70.00 3.1462 5.8183 0 
406 1 0.46 70.00 19.6312 3.2602 0 
407 1 0.45 70.00 22.5150 5.3004 0 
408 1 0.50 70.00 22.9363 1.1133 0 
409 1 0.46 70.00 8.0497 5.1483 0 
410 1 0.49 70.00 12.7005 0.9231 0 
411 1 0.47 70.00 9.5002 1.5626 0 
412 1 0.48 70.00 17.1993 2.1317 0 
413 1 0.48 70.00 24.4828 1.5541 0 
414 1 0.46 70.00 12.8212 2.3239 0 
415 1 0.46 70.00 0.8216 2.7514 0 
416 1 0.50 70.00 23.7351 1.7741 0 
417 1 0.43 70.00 17.4664 5.0167 0 
418 1 0.53 70.00 15.4689 5.8881 0 
419 1 0.47 70.00 12.7771 1.8488 0 
420 1 0.45 70.00 13.8923 1.2029 0 
421 1 0.47 70.00 9.5594 5.0079 0 
422 1 0.45 70.00 15.2107 5.8431 0 
423 1 0.45 70.00 2.5108 6.3160 0 
424 1 0.51 70.00 24.5874 2.7390 0 
425 1 0.46 70.00 14.4719 5.9575 0 
426 1 0.42 70.00 15.5648 2.2057 0 
427 1 0.44 70.00 15.2081 3.4853 0 
428 1 0.47 70.00 27.7525 4.0524 0 
429 1 0.46 70.00 27.4748 4.6155 0 
430 1 0.45 70.00 6.3675 1.9714 0 
431 1 0.44 70.00 15.6645 5.1626 0 
432 1 0.48 70.00 11.4691 6.6689 0 
433 1 0.51 70.00 11.7003 3.2907 0 
434 1 0.46 70.00 21.6044 5.1372 0 
435 1 0.48 70.00 23.8441 3.1025 0 
436 1 0.44 70.00 17.9152 1.3856 0 
437 1 0.44 70.00 6.3095 1.2590 0 
438 1 0.51 70.00 7.5269 3.7122 0 
439 1 0.52 70.00 15.8456 1.1754 0 
440 1 0.47 70.00 14.9404 3.6088 0 
441 1 0.48 70.00 2.3804 1.8222 0 
442 1 0.43 70.00 24.6931 6.0830 0 
443 1 0.48 70.00 8.0357 6.2316 0 
444 1 0.44 70.00 3.9101 6.6937 0 
445 1 0.47 70.00 16.0303 0.8980 0 
446 1 0.46 70.00 22.6984 6.2375 0 
447 1 0.46 70.00 19.1907 4.3056 0 
448 1 0.47 70.00 6.0537 5.2137 0 
449 1 0.44 70.00 26.5267 2.3596 0 
450 1 0.46 70.00 18.3739 4.1606 0 
451 1 0.45 70.00 9.1618 4.0753 0 
452 1 0.53 70.00 21.8680 0.6559 0 
453 1 0.47 70.00 14.4633 4.1551 0 
454 1 0.50 70.00 5.2514 4.8897 0 
455 1 0.45 70.00 27.2755 4.8326 0 
456 1 0.45 70.00 15.0115 1.3638 0 
457 1 0.49 70.00 15.2570 6.4641 0 
458 1 0.44 70.00 11.2347 1.2023 0 
459 1 0.45 70.00 20.8084 1.3034 0 
460 1 0.42 70.00 26.3303 4.6131 0 
461 1 0.49 70.00 11.0799 6.2858 0 
462 1 0.45 70.00 15.5233 1.4027 0 
463 1 0.52 70.00 5.4632 4.7573 0 
464 1 0.50 70.00 4.2219 3.2038 0 
465 1 0.49 70.00 25.9673 2.8324 0 
466 1 0.44 70.00 22.5399 0.7237 0 
467 1 0.49 70.00 22.7395 1.9487 0 
468 1 0.47 70.00 24.4728 3.2617 0 
469 1 0.44 70.00 25.2868 3.9031 0 
470 1 0.47 70.00 11.0147 5.7957 0 
471 1 0.49 70.00 5.8552 3.8890 0 
472 1 0.46 70.00 26.8286 3.0516 0 
473 1 0.47 70.00 23.6841 4.8707 0 
474 1 0.46 70.00 18.2315 0.5864 0 
475 1 0.44 70.00 24.0724 4.1105 0 
476 1 0.46 70.00 10.1309 1.8903 0 
477 1 0.45 70.00 25.7695 3.0205 0 
478 1 0.47 70.00 19.7715 6.0730 0 
479 1 0.51 70.00 10.5322 4.5059 0 
480 1 0.47 70.00 3.9158 2.6200 0 
481 1 0.50 70.00 9.4190 4.0555 0 
482 1 0.44 70.00 5.4867 2.8514 0 
483 1 0.45 70.00 16.0800 2.7412 0 
484 1 0.42 70.00 19.7077 3.5954 0 
485 1 0.42 70.00 15.0151 5.7420 0 
486 1 0.51 70.00 16.9156 6.1565 0 
487 1 0.49 70.00 15.7022 6.5457 0 
488 1 0.47 70.00 2.3188 6.0038 0 
489 1 0.48 70.00 0.5713 2.1276 0 
490 1 0.48 70.00 1.7022 4.4907 0 
491 1 0.48 70.00 9.8176 1.9802 0 
492 1 0.46 70.00 5.9397 6.3729 0 
493 1 0.41 70.00 12.2249 5.6106 0 
494 1 0.49 70.00 26.3039 0.8635 0 
495 1 0.50 70.00 23.4679 5.6846 0 
496 1 0.42 70.00 5.9808 5.5028 0 
497 1 0.43 70.00 18.0466 1.5688 0 
498 1 0.44 70.00 17.6337 1.4114 0 
499 1 0.49 70.00 3.1041 1.7449 0 
500 1 0.48 70.00 24.1301 6.4400 0 
501 1 0.44 70.00 16.7604 2.6158 0 
502 1 0.49 70.00 4.1539 0.7802 0 
503 1 0.48 70.00 21.6985 2.0537 0 
504 1 0.46 70.00 27.6999 3.0820 0 
505 1 0.51 70.00 25.2857 2.1522 0 
506 1 0.47 70.00 3.0869 2.5828 0 
507 1 0.48 70.00 12.3715 4.5755 0 
508 1 0.46 70.00 6.0296 4.5473 0 
509 1 0.48 70.00 18.0106 6.6207 0 
510 1 0.46 70.00 8.9810 5.7901 0 
511 1 0.42 70.00 23.7837 6.5216 0 
512 1 0.48 70.00 7.0072 1.0585 0 
513 1 0.51 70.00 20.2868 3.1068 0 
514 1 0.54 70.00 0.6282 5.6650 0 
515 1 0.52 70.00 6.7702 5.7191 0 
516 1 0.48 70.00 2.0292 4.9216 0 
517 1 0.53 70.00 3.0108 0.6255 0 
518 1 0.45 70.00 17.0084 3.6726 0 
519 1 0.47 70.00 2.8492 6.1830 0 
520 1 0.45 70.00 15.9746 1.8933 0 
521 1 0.48 70.00 8.4164 3.8777 0 
522 1 0.46 70.00 21.2085 5.8037 0 
523 1 0.44 70.00 13.2312 0.8779 0 
524 1 0.46 70.00 16.8872 4.6394 0 
525 1 0.49 70.00 2.7282 1.3419 0 
526 1 0.44 70.00 1.9934 4.2911 0 
527 1 0.47 70.00 17.8893 2.9173 0 
528 1 0.49 70.00 14.4373 5.6091 0 
529 1 0.48 70.00 5.5309 4.2980 0 
530 1 0.50 70.00 13.3557 3.4135 0 
531 1 0.46 70.00 9.5194 6.0494 0 
532 1 0.45 70.00 0.8909 2.9561 0 
533 1 0.46 70.00 18.5221 0.7369 0 
534 1 0.42 70.00 21.5393 1.6231 0 
535 1 0.50 70.00 20.3823 4.1061 0 
536 1 0.46 70.00 16.0796 2.2150 0 
537 1 0.45 70.00 23.0634 4.3472 0 
538 1 0.45 70.00 10.7508 2.0923 0 
539 1 0.45 70.00 4.9954 5.7940 0 
540 1 0.44 70.00 19.3746 5.4160 0 
541 1 0.48 70.00 13.5027 4.9113 0 
542 1 0.48 70.00 9.0215 1.2953 0 
543 1 0.41 70.00 6.7009 3.9948 0 
544 1 0.44 70.00 2.8404 2.3983 0 
545 1 0.47 70.00 14.7752 5.7015 0 
546 1 0.48 70.00 8.1776 3.6701 0 
547 1 0.47 70.00 7.4603 3.3142 0 
548 1 0.46 70.00 10.3312 0.7666 0 
549 1 0.51 70.00 6.5612 1.4860 0 
550 1 0.50 70.00 12.6267 5.3008 0 
551 1 0.43 70.00 6.8046 6.3878 0 
552 1 0.50 70.00 20.5298 4.2609 0 
553 1 0.45 70.00 19.9018 1.9820 0 
554 1 0.42 70.00 19.3435 2.3438 0 
555 1 0.54 70.00 13.4310 3.0847 0 
556 1 0.41 70.00 16.5877 0.7532 0 
557 1 0.52 70.00 1.1044 3.0851 0 
558 1 0.46 70.00 9.1807 4.5224 0 
559 1 0.45 70.00 24.6132 4.4289 0 
560 1 0.46 70.00 27.3957 0.5787 0 
561 1 0.47 70.00 12.1567 2.0018 0 
562 1 0.47 70.00 2.6734 1.8833 0 
563 1 0.41 70.00 10.3075 6.1142 0 
564 1 0.48 70.00 2.8759 5.7016 0 
565 1 0.47 70.00 1.4847 5.0874 0 
566 1 0.53 70.00 2.1580 3.3392 0 
567 1 0.53 70.00 21.0251 1.1461 0 
568 1 0.45 70.00 26.7083 4.4925 0 
569 1 0.48 70.00 4.7937 0.7364 0 
570 1 0.47 70.00 12.7515 1.4997 0 
571 1 0.47 70.00 9.8462 5.7933 0 
572 1 0.49 70.00 14.7352 2.1902 0 
573 1 0.50 70.00 27.5581 4.8277 0 
574 1 0.45 70.00 7.3234 6.3118 0 
575 1 0.50 70.00 21.9101 2.2234 0 
576 1 0.40 70.00 7.9056 3.8078 0 
577 1 0.40 70.00 15.6260 6.7787 0 
578 1 0.46 70.00 1.6273 1.7334 0 
579 1 0.42 70.00 21.0549 2.5027 0 
580 1 0.46 70.00 5.7252 5.6182 0 
581 1 0.46 70.00 13.9062 4.2078 0 
582 1 0.46 70.00 19.8032 4.0430 0 
583 1 0.46 70.00 5.8244 5.0050 0 
584 1 0.49 70.00 16.6094 1.2890 0 
585 1 0.46 70.00 7.3731 1.9563 0 
586 1 0.41 70.00 25.2603 2.7870 0 
587 1 0.46 70.00 14.0547 4.4492 0 
588 1 0.45 70.00 22.4417 3.1414 0 
589 1 0.51 70.00 22.3910 6.5955 0 
590 1 0.43 70.00 4.0493 3.3347 0 
591 1 0.52 70.00 22.9740 0.6666 0 
592 1 0.42 70.00 9.0302 1.7369 0 
593 1 0.50 70.00 6.1485 5.9220 0 
594 1 0.46 70.00 27.1355 3.6409 0 
595 1 0.48 70.00 24.1296 1.0909 0 
596 1 0.44 70.00 9.4777 3.2356 0 
597 1 0.49 70.00 22.4598 2.2929 0 
598 1 0.45 70.00 25.9803 3.9771 0 
599 1 0.45 70.00 15.1918 0.9736 0 
600 1 0.47 70.00 13.0404 2.1634 0 
601 1 0.45 70.00 12.3917 3.0526 0 
602 1 0.44 70.00 8.8400 5.2095 0 
603 1 0.44 70.00 10.8627 1.3737 0 
604 1 0.47 70.00 8.9825 4.2727 0 
605 1 0.49 70.00 5.7038 5.9637 0 
606 1 0.53 70.00 20.5771 3.7943 0 
607 1 0.44 70.00 18.6096 1.6452 0 
608 1 0.45 70.00 3.0501 6.6741 0 
609 1 0.43 70.00 26.5324 4.8210 0 
610 1 0.47 70.00 26.6641 6.6775 0 
611 1 0.47 70.00 7.2590 2.9188 0 
612 1 0.49 70.00 19.8742 5.5567 0 
613 1 0.49 70.00 9.0385 4.7382 0 
614 1 0.52 70.00 13.9460 3.7466 0 
615 1 0.46 70.00 22.1167 6.7240 0 
616 1 0.48 70.00 8.2460 4.8538 0 
617 1 0.51 70.00 27.3413 6.7550 0 
618 1 0.52 70.00 18.3847 1.2868 0 
619 1 0.46 70.00 7.3212 5.2751 0 
620 1 0.47 70.00 6.0469 2.2912 0 
621 1 0.46 70.00 4.7619 5.5082 0 
622 1 0.46 70.00 2.5607 2.6511 0 
623 1 0.43 70.00 16.0730 5.1094 0 
624 1 0.47 70.00 21.0922 1.9848 0 
625 1 0.42 70.00 9.4067 3.8522 0 
626 1 0.45 70.00 18.9712 5.0808 0 
627 1 0.46 70.00 9.4294 6.2848 0 
628 1 0.46 70.00 1.4434 0.9085 0 
629 1 0.46 70.00 13.9427 3.1956 0 
630 1 0.43 70.00 27.0874 2.7907 0 
631 1 0.52 70.00 10.6036 2.8318 0 
632 1 0.50 70.00 19.5136 1.1090 0 
633 1 0.45 70.00 16.6337 4.8910 0 
634 1 0.47 70.00 25.3007 3.4409 0 
635 1 0.43 70.00 21.4834 1.8671 0 
636 1 0.50 70.00 1.8603 5.0456 0 
637 1 0.45 70.00 9.8269 3.2769 0 
638 1 0.52 70.00 15.5078 5.5423 0 
639 1 0.49 70.00 19.6040 4.0119 0 
640 1 0.49 70.00 20.4852 5.7368 0 
641 1 0.48 70.00 4.6556 1.1392 0 
642 1 0.44 70.00 1.3646 6.2680 0 
643 1 0.52 70.00 5.2035 1.7839 0 
644 1 0.44 70.00 7.6559 6.2155 0 
645 1 0.50 70.00 15.8744 4.9144 0 
646 1 0.42 70.00 6.9816 0.7880 0 
647 1 0.48 70.00 23.8339 1.1327 0 
648 1 0.53 70.00 23.2576 4.4822 0 
649 1 0.48 70.00 24.6466 6.2845 0 
650 1 0.45 70.00 23.2677 5.4063 0 
651 1 0.48 70.00 6.4821 5.1301 0 
652 1 0.47 70.00 23.9151 5.3007 0 
653 1 0.43 70.00 11.1207 4.5204 0 
654 1 0.46 70.00 14.2685 1.5115 0 
655 1 0.45 70.00 15.3590 2.0925 0 
656 1 0.49 70.00 14.1876 3.4379 0 
657 1 0.51 70.00 0.7994 3.8683 0 
658 1 0.47 70.00 25.0830 3.9975 0 
659 1 0.52 70.00 18.8068 2.8532 0 
660 1 0.49 70.00 3.8036 5.7755 0 
661 1 0.48 70.00 12.8564 0.7973 0 
662 1 0.48 70.00 19.8720 5.1993 0 
663 1 0.50 70.00 6.4800 2.5775 0 
664 1 0.46 70.00 22.5881 6.7493 0 
665 1 0.51 70.00 12.9949 1.0184 0 
666 1 0.51 70.00 19.8491 4.8802 0 
667 1 0.50 70.00 15.5510 3.7071 0 
668 1 0.49 70.00 16.6821 0.5465 0 
669 1 0.45 70.00 20.6502 5.3163 0 
670 1 0.48 70.00 26.7626 1.2722 0 
671 1 0.44 70.00 14.9873 3.3109 0 
672 1 0.41 70.00 24.4281 1.7871 0 
673 1 0.53 70.00 20.8664 5.8285 0 
674 1 0.48 70.00 12.0894 5.4467 0 
675 1 0.48 70.00 19.2229 5.6958 0 
676 1 0.41 70.00 22.2060 3.2032 0 
677 1 0.48 70.00 17.6397 3.6891 0 
678 1 0.45 70.00 1.3491 5.6246 0 
679 1 0.51 70.00 13.3846 2.4690 0 
680 1 0.45 70.00 8.5316 5.2007 0 
681 1 0.48 70.00 17.1504 4.4541 0 
682 1 0.50 70.00 23.8056 3.7057 0 
683 1 0.50 70.00 4.7786 1.8325 0 
684 1 0.43 70.00 6.9922 5.9213 0 
685 1 0.46 70.00 5.8654 4.2173 0 
686 1 0.48 70.00 21.7335 4.4434 0 
687 1 0.45 70.00 20.3395 5.5150 0 
688 1 0.53 70.00 13.6899 5.1288 0 
689 1 0.44 70.00 9.0687 3.2052 0 
690 1 0.45 70.00 19.1455 1.2933 0 
691 1 0.47 70.00 23.2414 4.9373 0 
692 1 0.52 70.00 19.9791 1.1886 0 
693 1 0.46 70.00 7.7086 2.5192 0 
694 1 0.43 70.00 12.9640 1.7570 0 
695 1 0.44 70.00 12.2009 1.2285 0 
696 1 0.50 70.00 13.5517 2.1169 0 
697 1 0.45 70.00 26.3743 5.5302 0 
698 1 0.52 70.00 1.7827 2.4673 0 
699 1 0.49 70.00 4.5445 2.2212 0 
700 1 0.48 70.00 0.5538 1.8404 0 
701 1 0.44 70.00 10.0312 4.6485 0 
702 1 0.46 70.00 10.8741 2.8546 0 
703 1 0.46 70.00 4.6056 5.3223 0 
704 1 0.48 70.00 18.4657 3.1303 0 
705 1 0.47 70.00 17.3770 5.6182 0 
706 1 0.52 70.00 3.3348 0.6202 0 
707 1 0.48 70.00 14.9383 3.8400 0 
708 1 0.53 70.00 20.7194 3.4445 0 
709 1 0.44 70.00 17.3511 3.4725 0 
710 1 0.42 70.00 7.3847 3.9543 0 
711 1 0.43 70.00 4.7952 4.3698 0 
712 1 0.46 70.00 27.1763 5.2401 0 
713 1 0.48 70.00 19.2224 3.1945 0 
714 1 0.48 70.00 26.9735 0.6173 0 
715 1 0.52 70.00 3.7716 5.1185 0 
716 1 0.45 70.00 11.6479 2.9805 0 
717 1 0.42 70.00 6.6312 4.4734 0 
718 1 0.51 70.00 5.4134 4.5319 0 
719 1 0.42 70.00 20.2276 3.6752 0 
720 1 0.47 70.00 12.8905 2.7397 0 
721 1 0.44 70.00 24.4352 4.6120 0 
722 1 0.49 70.00 20.2843 2.2696 0 
723 1 0.43 70.00 2.8792 3.5560 0 
724 1 0.54 70.00 17.1591 4.7165 0 
725 1 0.46 70.00 1.1126 4.0673 0 
726 1 0.50 70.00 22.6934 6.0257 0 
727 1 0.48 70.00 23.5641 0.5528 0 
728 1 0.48 70.00 13.1942 1.4408 0 
729 1 0.45 70.00 12.7102 4.0615 0 
730 1 0.46 70.00 25.6553 6.1473 0 
731 1 0.46 70.00 18.5856 2.2028 0 
732 1 0.48 70.00 24.7939 5.2774 0 
733 1 0.51 70.00 14.8725 2.7570 0 
734 1 0.49 70.00 3.2009 1.0156 0 
735 1 0.44 70.00 20.4184 1.8863 0 
736 1 0.44 70.00 4.3098 6.2544 0 
737 1 0.50 70.00 0.8467 6.2895 0 
738 1 0.44 70.00 25.9333 6.4306 0 
739 1 0.45 70.00 23.8393 1.4832 0 
740 1 0.48 70.00 27.4147 6.2424 0 
741 1 0.47 70.00 5.5149 4.0466 0 
742 1 0.50 70.00 5.6802 1.4006 0 
743 1 0.44 70.00 22.9656 5.5449 0 
744 1 0.47 70.00 11.3630 2.0042 0 
745 1 0.48 70.00 19.3606 4.4693 0 
746 1 0.48 70.00 5.1032 4.6348 0 
747 1 0.49 70.00 0.6875 3.2716 0 
748 1 0.49 70.00 22.0975 5.1413 0 
749 1 0.45 70.00 27.7818 4.4776 0 
750 1 0.50 70.00 12.5294 3.5200 0 
751 1 0.48 70.00 8.7994 1.6880 0 
752 1 0.52 70.00 2.2322 4.4340 0 
753 1 0.48 70.00 13.9683 0.6833 0 
754 1 0.45 70.00 15.6829 5.8504 0 
755 1 0.47 70.00 27.0870 4.9960 0 
756 1 0.43 70.00 1.6456 6.4919 0 
757 1 0.44 70.00 1.9927 1.1862 0 
758 1 0.45 70.00 14.9728 6.0251 0 
759 1 0.43 70.00 20.4103 6.7566 0 
760 1 0.49 70.00 1.8920 6.5982 0 
761 1 0.49 70.00 17.2072 2.6503 0 
762 1 0.51 70.00 23.0905 5.9363 0 
763 1 0.48 70.00 20.2473 4.8062 0 
764 1 0.43 70.00 10.8854 1.6956 0 
765 1 0.47 70.00 12.3658 1.4301 0 
766 1 0.46 70.00 9.9456 3.5944 0 
767 1 0.48 70.00 9.4833 2.5254 0 
768 1 0.46 70.00 2.4552 4.5032 0 
769 1 0.50 70.00 11.4719 3.8460 0 
770 1 0.54 70.00 18.2531 2.4834 0 
771 1 0.46 70.00 1.4710 3.3388 0 
772 1 0.40 70.00 22.1407 1.7896 0 
773 1 0.47 70.00 27.2763 3.9939 0 
774 1 0.49 70.00 4.5436 1.3173 0 
775 1 0.47 70.00 25.0111 5.2689 0 
776 1 0.50 70.00 13.8380 1.5269 0 
777 1 0.42 70.00 18.0009 4.4459 0 
778 1 0.45 70.00 0.8142 0.6391 0 
779 1 0.44 70.00 20.3879 1.4725 0 
780 1 0.48 70.00 5.9911 4.7912 0 
781 1 0.52 70.00 8.4280 4.7150 0 
782 1 0.51 70.00 25.8040 6.7765 0 
783 1 0.48 70.00 14.4812 2.6932 0 
784 1 0.47 70.00 1.2788 2.6598 0 
785 1 0.50 70.00 14.7035 3.7156 0 
786 1 0.44 70.00 17.0390 3.4714 0 
787 1 0.49 70.00 27.3091 1.5713 0 
788 1 0.46 70.00 10.4468 2.3191 0 
789 1 0.46 70.00 19.0287 2.0485 0 
790 1 0.44 70.00 8.3292 3.1307 0 
791 1 0.44 70.00 8.7668 4.1495 0 
792 1 0.43 70.00 12.7067 5.7727 0 
793 1 0.48 70.00 10.3101 6.5970 0 
794 1 0.50 70.00 15.6021 3.3323 0 
795 1 0.47 70.00 0.6388 4.1807 0 
796 1 0.52 70.00 11.9498 3.4015 0 
797 1 0.44 70.00 24.8135 6.4897 0 
798 1 0.49 70.00 5.7379 0.8924 0 
799 1 0.47 70.00 19.1346 6.4199 0 
800 1 0.48 70.00 6.7239 4.9239 0 
801 1 0.44 70.00 3.5976 5.7067 0 
802 1 0.51 70.00 16.4566 2.7567 0 
803 1 0.52 70.00 8.7877 2.2475 0 
804 1 0.46 70.00 21.7527 5.2780 0 
805 1 0.48 70.00 19.5428 1.8207 0 
806 1 0.48 70.00 18.2918 5.0157 0 
807 1 0.51 70.00 10.4789 4.0664 0 
808 1 0.44 70.00 5.1776 2.2486 0 
809 1 0.47 70.00 21.1153 6.2484 0 
810 1 0.47 70.00 20.8451 2.7574 0 
811 1 0.52 70.00 11.9242 2.6100 0 
812 1 0.45 70.00 23.7000 2.1196 0 
813 1 0.45 70.00 14.0676 6.6938 0 
814 1 0.43 70.00 6.0204 6.6587 0 
815 1 0.50 70.00 2.7921 0.9849 0 
816 1 0.43 70.00 21.1625 0.9380 0 
817 1 0.54 70.00 22.1644 1.5166 0 
818 1 0.52 70.00 3.7973 6.4309 0 
819 1 0.46 70.00 25.7174 1.2063 0 
820 1 0.52 70.00 11.2416 6.6624 0 
821 1 0.49 70.00 21.4844 2.3286 0 
822 1 0.47 70.00 7.2278 3.5356 0 
823 1 0.48 70.00 9.2550 0.5044 0 
824 1 0.45 70.00 15.4012 4.6006 0 
825 1 0.45 70.00 0.7403 4.8967 0 
826 1 0.47 70.00 21.9574 5.9010 0 
827 1 0.47 70.00 1.0234 5.7719 0 
828 1 0.51 70.00 7.1634 6.6988 0 
829 1 0.49 70.00 8.4104 4.3898 0 
830 1 0.49 70.00 21.4993 1.3580 0 
831 1 0.48 70.00 16.2125 2.0405 0 
832 1 0.49 70.00 19.1135 3.8312 0 
833 1 0.49 70.00 7.4943 5.6429 0 
834 1 0.49 70.00 9.7036 0.5366 0 
835 1 0.43 70.00 21.4337 3.0708 0 
836 1 0.44 70.00 0.6437 6.2550 0 
837 1 0.48 70.00 16.6692 2.8946 0 
838 1 0.46 70.00 25.6065 2.3186 0 
839 1 0.46 70.00 16.3410 2.2387 0 
840 1 0.43 70.00 10.2099 4.0139 0 
841 1 0.49 70.00 17.7260 2.3386 0 
842 1 0.45 70.00 8.7312 3.4030 0 
843 1 0.44 70.00 11.9062 6.6496 0 
844 1 0.46 70.00 25.3925 4.9938 0 
845 1 0.45 70.00 14.9298 5.4449 0 
846 1 0.53 70.00 8.7868 2.8151 0 
847 1 0.47 70.00 25.2166 0.7932 0 
848 1 0.50 70.00 26.2532 0.5529 0 
849 1 0.52 70.00 1.9511 0.9732 0 
850 1 0.50 70.00 13.3129 5.1193 0 
851 1 0.52 70.00 20.9558 1.5655 0 
852 1 0.50 70.00 16.4698 5.8059 0 
853 1 0.51 70.00 22.3494 5.7891 0 
854 1 0.45 70.00 5.6995 6.5906 0 
855 1 0.46 70.00 22.5032 1.5076 0 
856 1 0.46 70.00 3.0864 3.6018 0 
857 1 0.42 70.00 17.7220 3.9386 0 
858 1 0.50 70.00 23.1778 5.7548 0 
859 1 0.48 70.00 14.2131 3.8325 0 
860 1 0.51 70.00 16.3538 2.5517 0 
861 1 0.51 70.00 6.5714 1.2858 0 
862 1 0.42 70.00 17.2137 3.2057 0 
863 1 0.50 70.00 10.0013 5.2661 0 
864 1 0.44 70.00 26.5132 3.1168 0 
865 1 0.47 70.00 25.1847 4.9590 0 