# LAMMPS data file for rigid bodies

1372 atoms

2 atom types

0.0 	 28.0 	 xlo xhi 
0.0 	 7.0 	 ylo yhi 
-1.0 	 1.0 	 zlo zhi 

Atoms

1 1 0.42 70.00 7.4995 2.4177 0 
2 1 0.48 70.00 12.9324 2.2867 0 
3 1 0.54 70.00 24.8287 6.3205 0 
4 1 0.46 70.00 26.5943 4.5382 0 
5 1 0.43 70.00 17.0942 1.6170 0 
6 1 0.49 70.00 9.3349 6.7846 0 
7 1 0.49 70.00 15.9224 2.5461 0 
8 1 0.45 70.00 15.8096 3.6582 0 
9 1 0.50 70.00 18.3944 5.9345 0 
10 1 0.51 70.00 22.1380 1.5597 0 
11 1 0.49 70.00 14.4383 1.9353 0 
12 1 0.43 70.00 10.8464 5.9058 0 
13 1 0.44 70.00 20.7738 3.3649 0 
14 1 0.47 70.00 24.1223 1.6355 0 
15 1 0.52 70.00 20.0182 3.4265 0 
16 1 0.50 70.00 8.0769 4.7816 0 
17 1 0.47 70.00 14.8679 2.7700 0 
18 1 0.48 70.00 19.5227 5.5807 0 
19 1 0.46 70.00 11.8353 1.7424 0 
20 1 0.47 70.00 11.3414 4.9549 0 
21 1 0.42 70.00 9.8150 5.9576 0 
22 1 0.45 70.00 18.3045 6.7941 0 
23 1 0.48 70.00 22.8903 2.1650 0 
24 1 0.41 70.00 23.4706 6.2184 0 
25 1 0.45 70.00 7.0969 0.6207 0 
26 1 0.46 70.00 1.5025 3.7988 0 
27 1 0.46 70.00 25.0613 5.7199 0 
28 1 0.46 70.00 24.2113 6.6918 0 
29 1 0.44 70.00 14.6469 5.0362 0 
30 1 0.47 70.00 17.4625 2.3351 0 
31 1 0.49 70.00 13.5052 2.4878 0 
32 1 0.48 70.00 22.5063 2.8612 0 
33 1 0.48 70.00 6.3477 0.7665 0 
34 1 0.45 70.00 2.5515 1.6935 0 
35 1 0.48 70.00 15.1363 2.8416 0 
36 1 0.49 70.00 22.4575 5.6982 0 
37 1 0.44 70.00 7.9293 6.5972 0 
38 1 0.49 70.00 10.6550 6.6558 0 
39 1 0.44 70.00 15.4225 0.8701 0 
40 1 0.46 70.00 6.9803 1.7797 0 
41 1 0.48 70.00 7.4431 2.0006 0 
42 1 0.44 70.00 26.1508 4.9358 0 
43 1 0.45 70.00 14.9379 6.3455 0 
44 1 0.52 70.00 23.2775 4.4587 0 
45 1 0.48 70.00 12.9829 3.8394 0 
46 1 0.49 70.00 2.1686 3.7141 0 
47 1 0.48 70.00 5.3393 1.2238 0 
48 1 0.44 70.00 15.4795 3.3792 0 
49 1 0.45 70.00 11.1295 1.1051 0 
50 1 0.52 70.00 14.2872 1.3501 0 
51 1 0.49 70.00 15.0263 1.6741 0 
52 1 0.42 70.00 18.5505 2.5019 0 
53 1 0.50 70.00 16.3895 3.8275 0 
54 1 0.45 70.00 23.8202 1.3371 0 
55 1 0.46 70.00 20.2959 0.8241 0 
56 1 0.47 70.00 22.7819 4.5420 0 
57 1 0.53 70.00 3.9601 4.6296 0 
58 1 0.42 70.00 3.1999 4.1998 0 
59 1 0.43 70.00 4.2628 5.7983 0 
60 1 0.53 70.00 4.7764 6.0105 0 
61 1 0.51 70.00 1.0478 2.8582 0 
62 1 0.46 70.00 8.0360 2.9075 0 
63 1 0.46 70.00 8.0191 6.7811 0 
64 1 0.47 70.00 17.4238 5.6376 0 
65 1 0.49 70.00 16.3596 4.8242 0 
66 1 0.46 70.00 18.6250 3.2737 0 
67 1 0.50 70.00 1.7331 2.6613 0 
68 1 0.50 70.00 12.7625 5.7667 0 
69 1 0.54 70.00 22.5714 3.5547 0 
70 1 0.54 70.00 20.1004 3.2293 0 
71 1 0.49 70.00 19.2416 1.1427 0 
72 1 0.48 70.00 11.3461 4.5107 0 
73 1 0.51 70.00 26.2447 6.7773 0 
74 1 0.45 70.00 13.3185 5.2585 0 
75 1 0.46 70.00 18.0673 4.2413 0 
76 1 0.46 70.00 18.5171 2.2137 0 
77 1 0.43 70.00 12.3140 1.5934 0 
78 1 0.39 70.00 2.9136 5.9182 0 
79 1 0.47 70.00 8.6400 5.6373 0 
80 1 0.48 70.00 4.8855 4.2889 0 
81 1 0.49 70.00 27.2258 0.7109 0 
82 1 0.46 70.00 5.0976 6.2247 0 
83 1 0.48 70.00 22.1898 6.7212 0 
84 1 0.47 70.00 1.9877 3.2090 0 
85 1 0.44 70.00 23.0951 5.0410 0 
86 1 0.42 70.00 21.3708 0.9559 0 
87 1 0.44 70.00 27.7880 2.0038 0 
88 1 0.49 70.00 4.5956 6.2350 0 
89 1 0.47 70.00 25.1413 3.9967 0 
90 1 0.48 70.00 14.2231 5.0632 0 
91 1 0.49 70.00 1.0256 4.1742 0 
92 1 0.43 70.00 13.3438 6.7269 0 
93 1 0.50 70.00 20.2799 2.2770 0 
94 1 0.45 70.00 23.8947 4.3262 0 
95 1 0.49 70.00 17.6478 3.5219 0 
96 1 0.48 70.00 7.2715 4.2044 0 
97 1 0.48 70.00 12.7679 2.5097 0 
98 1 0.47 70.00 24.0720 3.0512 0 
99 1 0.44 70.00 9.8719 6.4744 0 
100 1 0.45 70.00 8.5194 5.3001 0 
101 1 0.46 70.00 16.5047 2.2323 0 
102 1 0.50 70.00 6.1830 3.0824 0 
103 1 0.43 70.00 17.9733 3.2286 0 
104 1 0.52 70.00 18.7085 5.5169 0 
105 1 0.46 70.00 27.5006 0.5367 0 
106 1 0.44 70.00 26.6859 1.5047 0 
107 1 0.50 70.00 27.1088 1.4391 0 
108 1 0.44 70.00 4.4016 4.4592 0 
109 1 0.45 70.00 23.8793 5.3605 0 
110 1 0.50 70.00 12.4809 2.4167 0 
111 1 0.44 70.00 9.1876 4.6864 0 
112 1 0.45 70.00 12.9135 3.3248 0 
113 1 0.48 70.00 17.7737 1.6496 0 
114 1 0.44 70.00 0.9817 4.6844 0 
115 1 0.46 70.00 14.4600 2.3079 0 
116 1 0.55 70.00 6.2128 4.8148 0 
117 1 0.43 70.00 23.3765 4.8723 0 
118 1 0.48 70.00 13.7695 4.3266 0 
119 1 0.48 70.00 0.8095 0.8981 0 
120 1 0.46 70.00 15.0287 4.1074 0 
121 1 0.47 70.00 14.0428 1.2480 0 
122 1 0.44 70.00 19.8695 2.3508 0 
123 1 0.45 70.00 7.5136 3.1355 0 
124 1 0.46 70.00 3.9009 6.7975 0 
125 1 0.51 70.00 2.3977 4.2600 0 
126 1 0.49 70.00 25.4210 4.0704 0 
127 1 0.49 70.00 5.8742 4.9329 0 
128 1 0.44 70.00 18.1856 3.9722 0 
129 1 0.51 70.00 8.8176 3.9894 0 
130 1 0.47 70.00 8.7113 5.9799 0 
131 1 0.46 70.00 17.6009 6.7021 0 
132 1 0.45 70.00 18.5140 3.8295 0 
133 1 0.53 70.00 9.3454 6.5521 0 
134 1 0.47 70.00 2.0600 2.4144 0 
135 1 0.43 70.00 3.7599 4.9701 0 
136 1 0.48 70.00 13.5077 3.5653 0 
137 1 0.45 70.00 2.5572 3.4746 0 
138 1 0.49 70.00 5.8763 1.9320 0 
139 1 0.41 70.00 17.6085 5.7542 0 
140 1 0.47 70.00 11.7392 3.3321 0 
141 1 0.47 70.00 13.8805 5.3642 0 
142 1 0.53 70.00 8.6892 1.6558 0 
143 1 0.42 70.00 0.7521 5.6539 0 
144 1 0.47 70.00 3.6464 6.1963 0 
145 1 0.44 70.00 22.8636 5.8598 0 
146 1 0.43 70.00 2.7886 4.4492 0 
147 1 0.49 70.00 3.5686 5.3444 0 
148 1 0.42 70.00 23.6761 3.7489 0 
149 1 0.49 70.00 19.6155 1.4885 0 
150 1 0.46 70.00 8.2627 1.5557 0 
151 1 0.49 70.00 0.5463 6.0820 0 
152 1 0.46 70.00 21.5281 1.6146 0 
153 1 0.39 70.00 7.2449 2.6951 0 
154 1 0.51 70.00 21.7869 5.8022 0 
155 1 0.42 70.00 1.8984 1.9737 0 
156 1 0.50 70.00 6.7918 6.7926 0 
157 1 0.52 70.00 5.4244 6.7740 0 
158 1 0.45 70.00 22.2220 4.5941 0 
159 1 0.43 70.00 6.7156 5.1526 0 
160 1 0.48 70.00 12.9184 0.8864 0 
161 1 0.43 70.00 21.5507 2.3216 0 
162 1 0.46 70.00 3.3369 4.7241 0 
163 1 0.51 70.00 24.7565 1.0573 0 
164 1 0.48 70.00 7.8589 6.1486 0 
165 1 0.50 70.00 18.2565 0.8349 0 
166 1 0.48 70.00 19.6941 3.4975 0 
167 1 0.48 70.00 6.1394 2.8189 0 
168 1 0.46 70.00 14.8999 1.3119 0 
169 1 0.45 70.00 1.7108 3.6930 0 
170 1 0.51 70.00 17.1831 4.5035 0 
171 1 0.45 70.00 21.6726 3.2734 0 
172 1 0.44 70.00 23.2656 3.0075 0 
173 1 0.49 70.00 5.4618 2.6382 0 
174 1 0.45 70.00 16.6822 2.5829 0 
175 1 0.47 70.00 10.7685 2.8157 0 
176 1 0.47 70.00 13.5483 6.6976 0 
177 1 0.47 70.00 24.7633 1.7150 0 
178 1 0.47 70.00 2.9945 1.3144 0 
179 1 0.45 70.00 19.7151 4.0724 0 
180 1 0.49 70.00 6.6800 0.8646 0 
181 1 0.44 70.00 25.2093 6.6684 0 
182 1 0.46 70.00 16.0438 4.9326 0 
183 1 0.48 70.00 11.3511 6.5135 0 
184 1 0.45 70.00 18.5776 0.5133 0 
185 1 0.51 70.00 17.5518 6.3842 0 
186 1 0.46 70.00 25.8641 5.3263 0 
187 1 0.49 70.00 23.2664 6.6755 0 
188 1 0.46 70.00 1.8460 4.4046 0 
189 1 0.45 70.00 24.1515 5.1550 0 
190 1 0.44 70.00 4.7938 2.5885 0 
191 1 0.49 70.00 7.4120 4.7319 0 
192 1 0.53 70.00 20.9729 3.4273 0 
193 1 0.47 70.00 11.1426 3.1787 0 
194 1 0.44 70.00 1.1363 2.0583 0 
195 1 0.44 70.00 8.6097 1.9517 0 
196 1 0.49 70.00 27.4682 5.6873 0 
197 1 0.52 70.00 27.5445 3.8206 0 
198 1 0.43 70.00 27.6731 5.4243 0 
199 1 0.49 70.00 10.3815 3.4282 0 
200 1 0.44 70.00 27.5244 6.0511 0 
201 1 0.49 70.00 12.6847 1.3709 0 
202 1 0.44 70.00 13.5502 4.5657 0 
203 1 0.47 70.00 26.1043 0.9993 0 
204 1 0.44 70.00 3.2920 2.0319 0 
205 1 0.43 70.00 22.1206 5.7113 0 
206 1 0.49 70.00 8.4839 6.5705 0 
207 1 0.43 70.00 24.8771 2.3646 0 
208 1 0.50 70.00 19.7006 1.1094 0 
209 1 0.45 70.00 20.7587 5.8225 0 
210 1 0.49 70.00 27.6219 2.3420 0 
211 1 0.50 70.00 9.9357 3.6969 0 
212 1 0.50 70.00 6.2258 2.0878 0 
213 1 0.45 70.00 1.9945 4.6650 0 
214 1 0.46 70.00 1.4089 5.0899 0 
215 1 0.52 70.00 10.5802 4.4671 0 
216 1 0.48 70.00 10.1282 2.4435 0 
217 1 0.50 70.00 19.0481 0.7762 0 
218 1 0.42 70.00 16.1411 0.7133 0 
219 1 0.47 70.00 9.4398 5.3318 0 
220 1 0.46 70.00 12.4493 2.7339 0 
221 1 0.44 70.00 19.0282 3.5897 0 
222 1 0.53 70.00 14.7237 3.3520 0 
223 1 0.45 70.00 14.2603 3.0675 0 
224 1 0.46 70.00 19.4180 3.4391 0 
225 1 0.48 70.00 23.7522 5.5874 0 
226 1 0.43 70.00 1.5007 2.0686 0 
227 1 0.46 70.00 10.8631 1.7903 0 
228 1 0.44 70.00 21.1685 6.2441 0 
229 1 0.45 70.00 11.2065 3.6173 0 
230 1 0.50 70.00 14.6121 2.8327 0 
231 1 0.51 70.00 8.1550 4.2166 0 
232 1 0.45 70.00 26.0535 1.8100 0 
233 1 0.51 70.00 3.7847 3.9700 0 
234 1 0.49 70.00 26.7139 3.5212 0 
235 1 0.51 70.00 10.8618 3.2739 0 
236 1 0.48 70.00 17.9378 6.5528 0 
237 1 0.46 70.00 23.4733 2.4752 0 
238 1 0.47 70.00 27.7134 1.6003 0 
239 1 0.46 70.00 6.4427 2.3126 0 
240 1 0.47 70.00 22.3750 3.4304 0 
241 1 0.46 70.00 26.4393 6.1382 0 
242 1 0.46 70.00 21.1757 4.1782 0 
243 1 0.45 70.00 0.9238 1.9899 0 
244 1 0.45 70.00 26.1152 5.2053 0 
245 1 0.48 70.00 19.9455 2.9145 0 
246 1 0.50 70.00 18.9582 4.1876 0 
247 1 0.47 70.00 26.6137 6.4863 0 
248 1 0.49 70.00 11.0391 4.7918 0 
249 1 0.43 70.00 2.9220 0.7589 0 
250 1 0.51 70.00 12.1069 4.6475 0 
251 1 0.48 70.00 24.5937 6.6822 0 
252 1 0.45 70.00 5.8039 1.4691 0 
253 1 0.46 70.00 21.4273 5.2145 0 
254 1 0.44 70.00 5.7982 2.5141 0 
255 1 0.46 70.00 24.6318 3.4218 0 
256 1 0.43 70.00 19.9651 1.6615 0 
257 1 0.49 70.00 1.3621 2.9373 0 
258 1 0.48 70.00 25.2392 3.2107 0 
259 1 0.46 70.00 15.0392 2.5432 0 
260 1 0.46 70.00 6.1431 0.6458 0 
261 1 0.47 70.00 21.4152 3.5441 0 
262 1 0.45 70.00 18.5980 5.2328 0 
263 1 0.49 70.00 20.0568 5.8049 0 
264 1 0.43 70.00 18.1345 2.1105 0 
265 1 0.45 70.00 27.7394 6.5483 0 
266 1 0.51 70.00 14.9419 1.8936 0 
267 1 0.43 70.00 13.4111 6.4584 0 
268 1 0.47 70.00 25.8126 2.1131 0 
269 1 0.47 70.00 6.1910 6.0842 0 
270 1 0.45 70.00 12.6241 0.9052 0 
271 1 0.47 70.00 21.8130 2.3468 0 
272 1 0.46 70.00 8.1686 3.3203 0 
273 1 0.44 70.00 6.8118 5.8534 0 
274 1 0.49 70.00 20.4775 4.1484 0 
275 1 0.45 70.00 14.0926 4.3326 0 
276 1 0.52 70.00 3.5627 0.9689 0 
277 1 0.48 70.00 10.2402 5.4993 0 
278 1 0.54 70.00 23.1320 4.2056 0 
279 1 0.47 70.00 10.6275 1.9611 0 
280 1 0.51 70.00 6.9180 2.1112 0 
281 1 0.47 70.00 5.3291 3.5776 0 
282 1 0.48 70.00 14.9722 3.2812 0 
283 1 0.47 70.00 1.9337 6.7418 0 
284 1 0.50 70.00 1.5751 1.1282 0 
285 1 0.49 70.00 26.1936 4.4638 0 
286 1 0.45 70.00 10.3720 5.3419 0 
287 1 0.49 70.00 23.4580 5.8475 0 
288 1 0.48 70.00 3.7871 5.9989 0 
289 1 0.50 70.00 25.5396 4.8824 0 
290 1 0.52 70.00 23.2993 6.4185 0 
291 1 0.47 70.00 8.0713 0.9083 0 
292 1 0.52 70.00 22.4061 6.3828 0 
293 1 0.44 70.00 5.3176 5.9846 0 
294 1 0.45 70.00 16.5045 0.5530 0 
295 1 0.43 70.00 25.2397 2.2779 0 
296 1 0.46 70.00 11.4202 5.7408 0 
297 1 0.49 70.00 23.5716 4.4760 0 
298 1 0.49 70.00 2.1347 0.8748 0 
299 1 0.45 70.00 15.9125 1.5212 0 
300 1 0.48 70.00 12.4013 4.4377 0 
301 1 0.49 70.00 5.5444 2.8423 0 
302 1 0.44 70.00 12.0924 5.6806 0 
303 1 0.50 70.00 21.7438 6.0629 0 
304 1 0.48 70.00 5.6758 0.6816 0 
305 1 0.50 70.00 23.9431 3.3479 0 
306 1 0.46 70.00 9.6196 2.6677 0 
307 1 0.48 70.00 2.7738 3.1861 0 
308 1 0.41 70.00 22.7918 6.1563 0 
309 1 0.45 70.00 20.1466 5.5299 0 
310 1 0.51 70.00 21.2010 0.6207 0 
311 1 0.44 70.00 16.6874 2.3288 0 
312 1 0.51 70.00 25.9366 0.8766 0 
313 1 0.46 70.00 13.1253 5.0792 0 
314 1 0.49 70.00 19.0271 3.8241 0 
315 1 0.44 70.00 1.8742 5.8203 0 
316 1 0.43 70.00 11.0300 2.1996 0 
317 1 0.38 70.00 9.7689 4.8766 0 
318 1 0.43 70.00 26.5767 1.7657 0 
319 1 0.47 70.00 25.5437 5.1323 0 
320 1 0.45 70.00 2.6809 2.3971 0 
321 1 0.49 70.00 15.9808 6.5804 0 
322 1 0.45 70.00 4.6479 2.2365 0 
323 1 0.49 70.00 27.2790 4.1621 0 
324 1 0.48 70.00 24.4859 5.2912 0 
325 1 0.45 70.00 5.1603 0.8398 0 
326 1 0.52 70.00 19.0152 6.3921 0 
327 1 0.49 70.00 19.9326 5.0180 0 
328 1 0.44 70.00 10.6804 1.6764 0 
329 1 0.50 70.00 4.2496 1.5001 0 
330 1 0.47 70.00 3.0424 4.7789 0 
331 1 0.46 70.00 15.3858 2.5993 0 
332 1 0.47 70.00 1.4713 5.3325 0 
333 1 0.45 70.00 16.1680 4.3746 0 
334 1 0.52 70.00 10.9692 5.2016 0 
335 1 0.47 70.00 9.1392 2.9324 0 
336 1 0.50 70.00 10.0258 4.8829 0 
337 1 0.45 70.00 24.6441 2.9458 0 
338 1 0.51 70.00 20.4900 1.9038 0 
339 1 0.47 70.00 9.9921 5.1094 0 
340 1 0.51 70.00 10.4155 1.8524 0 
341 1 0.44 70.00 20.1947 5.1880 0 
342 1 0.45 70.00 0.5043 2.4920 0 
343 1 0.46 70.00 16.4339 6.2252 0 
344 1 0.50 70.00 15.9538 4.3053 0 
345 1 0.46 70.00 0.7008 4.2524 0 
346 1 0.45 70.00 24.2835 4.7705 0 
347 1 0.44 70.00 14.2400 3.6761 0 
348 1 0.47 70.00 20.9763 3.9109 0 
349 1 0.43 70.00 16.9025 1.8296 0 
350 1 0.48 70.00 19.3183 0.9035 0 
351 1 0.50 70.00 10.6086 4.7925 0 
352 1 0.49 70.00 2.3026 4.9762 0 
353 1 0.47 70.00 1.5776 3.0229 0 
354 1 0.46 70.00 20.6527 1.3625 0 
355 1 0.51 70.00 9.9071 5.5749 0 
356 1 0.50 70.00 25.2817 2.7680 0 
357 1 0.44 70.00 1.3110 3.4141 0 
358 1 0.47 70.00 11.7369 0.6015 0 
359 1 0.47 70.00 20.8063 3.0166 0 
360 1 0.46 70.00 23.0805 6.4248 0 
361 1 0.45 70.00 14.4858 6.2702 0 
362 1 0.51 70.00 4.1764 6.5951 0 
363 1 0.50 70.00 27.4385 1.2445 0 
364 1 0.48 70.00 25.8810 3.0126 0 
365 1 0.42 70.00 13.1267 3.5863 0 
366 1 0.49 70.00 21.1267 1.4382 0 
367 1 0.47 70.00 27.0117 1.2229 0 
368 1 0.47 70.00 10.1587 3.8843 0 
369 1 0.45 70.00 2.8860 1.8031 0 
370 1 0.44 70.00 22.1857 6.5079 0 
371 1 0.48 70.00 24.8306 0.6015 0 
372 1 0.43 70.00 12.3895 0.7525 0 
373 1 0.47 70.00 2.6361 6.6632 0 
374 1 0.48 70.00 23.9036 3.8520 0 
375 1 0.47 70.00 9.0281 2.4187 0 
376 1 0.50 70.00 16.0767 4.0093 0 
377 1 0.51 70.00 20.7259 0.6427 0 
378 1 0.38 70.00 0.8181 4.5517 0 
379 1 0.47 70.00 5.6121 2.1330 0 
380 1 0.52 70.00 0.8918 6.0863 0 
381 1 0.51 70.00 14.3743 5.5112 0 
382 1 0.52 70.00 10.6315 3.5951 0 
383 1 0.46 70.00 1.4889 1.8677 0 
384 1 0.49 70.00 2.6608 2.9033 0 
385 1 0.46 70.00 20.1841 3.5901 0 
386 1 0.42 70.00 14.8255 5.1655 0 
387 1 0.48 70.00 7.7099 4.2005 0 
388 1 0.45 70.00 2.9135 3.5214 0 
389 1 0.44 70.00 23.6940 1.8089 0 
390 1 0.44 70.00 18.1161 5.0348 0 
391 1 0.46 70.00 26.0254 6.2036 0 
392 1 0.42 70.00 12.8111 4.0465 0 
393 1 0.48 70.00 3.9361 5.7195 0 
394 1 0.45 70.00 6.3634 1.5829 0 
395 1 0.46 70.00 24.5450 4.5266 0 
396 1 0.50 70.00 17.7585 2.0943 0 
397 1 0.50 70.00 13.7302 2.0546 0 
398 1 0.49 70.00 1.3393 5.5219 0 
399 1 0.53 70.00 5.4981 3.7067 0 
400 1 0.51 70.00 13.4898 2.2356 0 
401 1 0.51 70.00 24.9081 5.8980 0 
402 1 0.45 70.00 14.1241 1.5331 0 
403 1 0.52 70.00 22.0027 2.4630 0 
404 1 0.48 70.00 27.6269 3.4846 0 
405 1 0.50 70.00 23.1159 2.4126 0 
406 1 0.50 70.00 5.4313 4.3273 0 
407 1 0.46 70.00 17.9669 5.3986 0 
408 1 0.50 70.00 8.1161 1.1871 0 
409 1 0.51 70.00 6.7396 1.2374 0 
410 1 0.47 70.00 23.4612 1.6636 0 
411 1 0.53 70.00 24.6459 3.1962 0 
412 1 0.50 70.00 23.5434 5.4735 0 
413 1 0.49 70.00 8.4487 6.3129 0 
414 1 0.45 70.00 2.7725 5.6051 0 
415 1 0.44 70.00 5.8784 2.8701 0 
416 1 0.48 70.00 10.6494 0.9619 0 
417 1 0.42 70.00 26.1396 2.1300 0 
418 1 0.46 70.00 19.5391 0.9356 0 
419 1 0.42 70.00 5.0470 4.1191 0 
420 1 0.48 70.00 1.1746 2.3872 0 
421 1 0.52 70.00 3.0497 5.5886 0 
422 1 0.45 70.00 3.5560 5.7038 0 
423 1 0.48 70.00 11.0649 5.4397 0 
424 1 0.44 70.00 18.3506 1.5392 0 
425 1 0.53 70.00 2.0699 0.6345 0 
426 1 0.46 70.00 25.0213 2.7850 0 
427 1 0.48 70.00 9.3165 1.3075 0 
428 1 0.47 70.00 11.9587 1.2477 0 
429 1 0.43 70.00 16.8266 1.0135 0 
430 1 0.50 70.00 0.9941 5.6656 0 
431 1 0.48 70.00 18.0703 1.0965 0 
432 1 0.49 70.00 1.3606 2.7270 0 
433 1 0.52 70.00 5.4258 4.9604 0 
434 1 0.46 70.00 13.5589 3.7698 0 
435 1 0.52 70.00 27.7802 3.8802 0 
436 1 0.46 70.00 1.1060 3.2759 0 
437 1 0.44 70.00 12.9806 4.4073 0 
438 1 0.45 70.00 6.9576 4.3102 0 
439 1 0.47 70.00 13.4741 6.1714 0 
440 1 0.48 70.00 19.2307 5.9592 0 
441 1 0.51 70.00 25.7667 1.4899 0 
442 1 0.46 70.00 22.2797 1.8038 0 
443 1 0.50 70.00 18.4354 4.3750 0 
444 1 0.48 70.00 6.6110 5.8784 0 
445 1 0.47 70.00 2.4208 1.4758 0 
446 1 0.48 70.00 4.0948 3.7937 0 
447 1 0.45 70.00 21.7432 4.4972 0 
448 1 0.53 70.00 7.2284 4.6219 0 
449 1 0.50 70.00 12.3429 4.8539 0 
450 1 0.48 70.00 5.3285 4.5270 0 
451 1 0.44 70.00 3.3657 0.9062 0 
452 1 0.45 70.00 21.8993 6.5926 0 
453 1 0.48 70.00 21.7369 5.4717 0 
454 1 0.49 70.00 15.0410 5.9593 0 
455 1 0.45 70.00 26.4698 3.8448 0 
456 1 0.45 70.00 9.0595 5.5527 0 
457 1 0.46 70.00 4.0533 5.4402 0 
458 1 0.50 70.00 10.7624 5.2630 0 
459 1 0.43 70.00 27.2302 1.9286 0 
460 1 0.50 70.00 2.6769 6.2249 0 
461 1 0.44 70.00 8.0943 4.0039 0 
462 1 0.42 70.00 3.6361 6.5744 0 
463 1 0.49 70.00 25.7309 0.5953 0 
464 1 0.48 70.00 7.7253 4.6274 0 
465 1 0.50 70.00 11.3465 1.4825 0 
466 1 0.45 70.00 8.5656 4.3248 0 
467 1 0.52 70.00 22.6887 2.1852 0 
468 1 0.53 70.00 13.4855 0.7584 0 
469 1 0.51 70.00 0.7824 3.1323 0 
470 1 0.46 70.00 13.9755 6.2712 0 
471 1 0.44 70.00 23.2546 1.8631 0 
472 1 0.48 70.00 22.0938 0.6377 0 
473 1 0.51 70.00 3.8655 1.3925 0 
474 1 0.49 70.00 25.4195 0.9612 0 
475 1 0.46 70.00 24.3874 0.8999 0 
476 1 0.51 70.00 26.9279 5.2546 0 
477 1 0.46 70.00 4.4934 4.8554 0 
478 1 0.51 70.00 12.8454 6.7845 0 
479 1 0.45 70.00 11.1810 2.8834 0 
480 1 0.48 70.00 11.0248 5.9963 0 
481 1 0.45 70.00 8.1310 0.5775 0 
482 1 0.47 70.00 21.2528 2.1326 0 
483 1 0.50 70.00 23.4218 3.4911 0 
484 1 0.46 70.00 3.3368 3.3286 0 
485 1 0.48 70.00 3.6315 3.3125 0 
486 1 0.50 70.00 0.9921 6.6427 0 
487 1 0.45 70.00 5.2183 2.0810 0 
488 1 0.38 70.00 12.3008 3.2653 0 
489 1 0.42 70.00 1.9465 1.2308 0 
490 1 0.49 70.00 8.5550 3.9223 0 
491 1 0.41 70.00 13.0073 2.6553 0 
492 1 0.51 70.00 4.9679 6.5358 0 
493 1 0.50 70.00 23.5599 2.2361 0 
494 1 0.49 70.00 6.4328 6.1346 0 
495 1 0.44 70.00 20.0036 0.6935 0 
496 1 0.50 70.00 3.8201 2.9541 0 
497 1 0.55 70.00 5.0597 3.5928 0 
498 1 0.43 70.00 24.3179 1.5017 0 
499 1 0.52 70.00 2.1365 1.0839 0 
500 1 0.45 70.00 1.0457 0.9225 0 
501 1 0.49 70.00 21.8051 2.8672 0 
502 1 0.41 70.00 18.7049 1.1018 0 
503 1 0.47 70.00 22.3479 4.9515 0 
504 1 0.46 70.00 2.6743 0.8503 0 
505 1 0.44 70.00 4.2381 1.9795 0 
506 1 0.47 70.00 9.2481 6.0634 0 
507 1 0.42 70.00 4.6686 6.6098 0 
508 1 0.49 70.00 4.5369 2.4914 0 
509 1 0.50 70.00 21.3465 5.9117 0 
510 1 0.49 70.00 19.9670 4.7653 0 
511 1 0.42 70.00 20.8827 2.4049 0 
512 1 0.45 70.00 10.8734 2.5086 0 
513 1 0.47 70.00 0.9335 2.6035 0 
514 1 0.48 70.00 15.3855 4.4470 0 
515 1 0.44 70.00 23.9036 5.1045 0 
516 1 0.49 70.00 26.5102 1.3068 0 
517 1 0.52 70.00 8.4049 3.0730 0 
518 1 0.44 70.00 2.0737 2.9728 0 
519 1 0.50 70.00 11.6390 6.2720 0 
520 1 0.46 70.00 5.0480 0.6069 0 
521 1 0.47 70.00 17.2780 6.3379 0 
522 1 0.50 70.00 25.4088 5.6623 0 
523 1 0.49 70.00 3.1144 0.5559 0 
524 1 0.48 70.00 14.4924 1.3000 0 
525 1 0.45 70.00 1.5625 6.1507 0 
526 1 0.45 70.00 11.2928 2.3416 0 
527 1 0.46 70.00 21.9087 1.7988 0 
528 1 0.43 70.00 4.7026 1.6959 0 
529 1 0.51 70.00 1.8571 2.9363 0 
530 1 0.48 70.00 12.2509 3.9347 0 
531 1 0.47 70.00 13.2759 4.0655 0 
532 1 0.47 70.00 7.0398 3.8284 0 
533 1 0.49 70.00 10.2615 4.4167 0 
534 1 0.48 70.00 24.3218 6.4789 0 
535 1 0.44 70.00 26.6518 2.2129 0 
536 1 0.46 70.00 20.4956 1.4868 0 
537 1 0.40 70.00 25.5865 1.0923 0 
538 1 0.46 70.00 11.2824 3.8359 0 
539 1 0.50 70.00 15.9845 5.5593 0 
540 1 0.47 70.00 18.7647 5.7109 0 
541 1 0.49 70.00 19.8648 4.3207 0 
542 1 0.50 70.00 15.9495 0.5715 0 
543 1 0.48 70.00 6.2025 1.3268 0 
544 1 0.53 70.00 20.3968 3.5178 0 
545 1 0.49 70.00 0.6847 3.7086 0 
546 1 0.52 70.00 7.9650 0.7093 0 
547 1 0.48 70.00 26.4840 5.8348 0 
548 1 0.47 70.00 26.6547 4.8987 0 
549 1 0.45 70.00 0.6471 1.6520 0 
550 1 0.46 70.00 22.0069 4.5382 0 
551 1 0.50 70.00 17.8482 4.5923 0 
552 1 0.44 70.00 16.2384 1.7103 0 
553 1 0.49 70.00 3.7017 4.3594 0 
554 1 0.54 70.00 12.8455 1.2398 0 
555 1 0.49 70.00 8.8592 5.3991 0 
556 1 0.47 70.00 13.0053 4.1772 0 
557 1 0.49 70.00 3.4490 3.7312 0 
558 1 0.44 70.00 3.3441 4.9966 0 
559 1 0.49 70.00 0.6810 6.7328 0 
560 1 0.45 70.00 11.0902 0.7394 0 
561 1 0.44 70.00 26.2516 3.6325 0 
562 1 0.43 70.00 4.2615 2.7859 0 
563 1 0.49 70.00 3.9924 4.2043 0 
564 1 0.48 70.00 8.0172 2.2769 0 
565 1 0.47 70.00 17.6803 3.8037 0 
566 1 0.48 70.00 9.7049 4.1586 0 
567 1 0.47 70.00 14.0004 3.2540 0 
568 1 0.46 70.00 15.6040 2.2988 0 
569 1 0.46 70.00 10.2659 6.4217 0 
570 1 0.44 70.00 27.3712 2.1157 0 
571 1 0.45 70.00 25.1515 6.1015 0 
572 1 0.48 70.00 25.6419 6.2820 0 
573 1 0.50 70.00 2.9548 2.8821 0 
574 1 0.46 70.00 3.0292 3.2534 0 
575 1 0.43 70.00 23.5983 1.5052 0 
576 1 0.46 70.00 14.7283 6.5425 0 
577 1 0.45 70.00 14.0726 0.6443 0 
578 1 0.49 70.00 24.5010 1.2811 0 
579 1 0.50 70.00 17.3422 5.1852 0 
580 1 0.49 70.00 25.1395 5.1426 0 
581 1 0.52 70.00 15.5850 2.9308 0 
582 1 0.45 70.00 3.6214 2.5122 0 
583 1 0.48 70.00 13.7672 4.1040 0 
584 1 0.49 70.00 17.3801 1.7389 0 
585 1 0.48 70.00 20.5441 1.1213 0 
586 1 0.48 70.00 14.3769 4.7148 0 
587 1 0.48 70.00 2.6561 2.6821 0 
588 1 0.49 70.00 3.4740 1.3929 0 
589 1 0.46 70.00 7.5019 3.4370 0 
590 1 0.42 70.00 5.1973 4.6821 0 
591 1 0.46 70.00 5.3214 3.0014 0 
592 1 0.45 70.00 22.9703 3.2041 0 
593 1 0.49 70.00 8.3666 1.3125 0 
594 1 0.44 70.00 26.1836 2.5705 0 
595 1 0.48 70.00 0.5937 3.4624 0 
596 1 0.50 70.00 21.1071 2.3749 0 
597 1 0.47 70.00 21.1943 5.2725 0 
598 1 0.44 70.00 2.9703 2.4817 0 
599 1 0.47 70.00 21.9582 4.2590 0 
600 1 0.47 70.00 7.1659 1.4906 0 
601 1 0.47 70.00 0.8740 0.6447 0 
602 1 0.44 70.00 23.9810 2.4735 0 
603 1 0.47 70.00 25.2043 0.8539 0 
604 1 0.45 70.00 3.5466 4.6315 0 
605 1 0.53 70.00 27.2937 4.8697 0 
606 1 0.46 70.00 16.7511 4.7915 0 
607 1 0.51 70.00 8.5093 3.6388 0 
608 1 0.49 70.00 13.3915 3.8844 0 
609 1 0.45 70.00 9.9579 4.5457 0 
610 1 0.42 70.00 27.0658 5.6228 0 
611 1 0.49 70.00 13.1350 6.0940 0 
612 1 0.50 70.00 1.8568 6.1762 0 
613 1 0.40 70.00 1.2180 6.3355 0 
614 1 0.50 70.00 1.7748 0.9356 0 
615 1 0.47 70.00 18.1880 2.4288 0 
616 1 0.49 70.00 9.1887 5.8033 0 
617 1 0.49 70.00 22.4546 3.1070 0 
618 1 0.50 70.00 20.5625 5.8873 0 
619 1 0.44 70.00 19.6147 4.6813 0 
620 1 0.45 70.00 26.1626 3.0382 0 
621 1 0.41 70.00 24.2213 2.0659 0 
622 1 0.48 70.00 17.3909 2.9864 0 
623 1 0.46 70.00 16.9158 4.0376 0 
624 1 0.50 70.00 12.5861 3.2060 0 
625 1 0.47 70.00 11.3773 1.7950 0 
626 1 0.50 70.00 17.0177 4.2927 0 
627 1 0.51 70.00 17.3679 6.5943 0 
628 1 0.41 70.00 8.6281 1.3030 0 
629 1 0.44 70.00 20.7626 4.2099 0 
630 1 0.47 70.00 16.5240 1.0297 0 
631 1 0.46 70.00 4.9246 2.8741 0 
632 1 0.47 70.00 4.6167 0.9371 0 
633 1 0.51 70.00 18.3046 2.9801 0 
634 1 0.47 70.00 5.9469 6.2907 0 
635 1 0.51 70.00 20.9775 5.4800 0 
636 1 0.51 70.00 12.1485 3.4834 0 
637 1 0.49 70.00 20.8577 4.6120 0 
638 1 0.51 70.00 2.3551 5.8176 0 
639 1 0.46 70.00 4.1786 4.3153 0 
640 1 0.41 70.00 16.7193 5.7073 0 
641 1 0.41 70.00 25.1052 3.0099 0 
642 1 0.50 70.00 21.6827 0.8845 0 
643 1 0.46 70.00 3.3534 6.0248 0 
644 1 0.45 70.00 21.2138 4.3862 0 
645 1 0.46 70.00 10.5671 2.1964 0 
646 1 0.46 70.00 14.2280 5.8921 0 
647 1 0.42 70.00 10.5049 3.8565 0 
648 1 0.46 70.00 26.3137 0.6587 0 
649 1 0.48 70.00 19.1787 2.5971 0 
650 1 0.47 70.00 26.6754 6.7941 0 
651 1 0.45 70.00 18.5952 1.4442 0 
652 1 0.48 70.00 3.4821 2.2589 0 
653 1 0.46 70.00 21.7049 1.8182 0 
654 1 0.47 70.00 18.1004 1.4613 0 
655 1 0.45 70.00 9.3192 4.2484 0 
656 1 0.44 70.00 24.6397 5.7764 0 
657 1 0.52 70.00 3.8549 1.8395 0 
658 1 0.50 70.00 19.2269 3.1146 0 
659 1 0.49 70.00 10.6872 1.4196 0 
660 1 0.48 70.00 20.7931 6.4563 0 
661 1 0.47 70.00 22.5683 4.2797 0 
662 1 0.50 70.00 10.5048 2.5432 0 
663 1 0.48 70.00 9.7021 5.7441 0 
664 1 0.47 70.00 9.7269 1.4130 0 
665 1 0.51 70.00 7.4693 3.7676 0 
666 1 0.42 70.00 7.2860 4.9582 0 
667 1 0.49 70.00 11.9360 4.8099 0 
668 1 0.48 70.00 24.3136 3.6471 0 
669 1 0.50 70.00 15.3971 6.1725 0 
670 1 0.46 70.00 24.3136 4.3918 0 
671 1 0.46 70.00 19.7416 6.3756 0 
672 1 0.45 70.00 11.5973 3.8612 0 
673 1 0.48 70.00 6.3412 2.6741 0 
674 1 0.49 70.00 8.8102 4.9229 0 
675 1 0.45 70.00 9.4100 3.3041 0 
676 1 0.44 70.00 23.7928 4.7813 0 
677 1 0.41 70.00 12.0844 6.2972 0 
678 1 0.46 70.00 14.0809 2.4125 0 
679 1 0.48 70.00 9.8076 3.1413 0 
680 1 0.50 70.00 13.4950 5.9582 0 
681 1 0.46 70.00 20.6813 3.6018 0 
682 1 0.45 70.00 14.9335 5.6414 0 
683 1 0.45 70.00 6.7898 5.3536 0 
684 1 0.49 70.00 0.6091 5.3404 0 
685 1 0.46 70.00 12.2067 5.2178 0 
686 1 0.47 70.00 12.3957 2.9791 0 
687 1 0.44 70.00 17.1535 1.2440 0 
688 1 0.52 70.00 23.1581 6.0421 0 
689 1 0.47 70.00 26.8089 3.7469 0 
690 1 0.46 70.00 22.6726 3.1380 0 
691 1 0.44 70.00 20.1623 1.3530 0 
692 1 0.47 70.00 20.2331 3.8279 0 
693 1 0.45 70.00 25.2284 1.9464 0 
694 1 0.46 70.00 6.4576 1.0487 0 
695 1 0.47 70.00 22.3070 5.9848 0 
696 1 0.47 70.00 24.1809 6.1432 0 
697 1 0.51 70.00 11.2623 5.9535 0 
698 1 0.50 70.00 7.3344 1.8030 0 
699 1 0.47 70.00 4.4233 3.4070 0 
700 1 0.46 70.00 4.1413 0.5766 0 
701 1 0.49 70.00 5.0296 1.6774 0 
702 1 0.48 70.00 16.3119 1.2827 0 
703 1 0.49 70.00 25.9236 2.3184 0 
704 1 0.48 70.00 1.4889 1.5661 0 
705 1 0.47 70.00 19.1299 5.6585 0 
706 1 0.51 70.00 12.6263 6.7173 0 
707 1 0.46 70.00 2.4857 4.7799 0 
708 1 0.49 70.00 7.0988 1.9705 0 
709 1 0.45 70.00 12.5772 5.3704 0 
710 1 0.44 70.00 20.9278 0.9902 0 
711 1 0.50 70.00 6.8202 6.5898 0 
712 1 0.47 70.00 26.9502 6.0319 0 
713 1 0.44 70.00 7.0577 6.7634 0 
714 1 0.49 70.00 2.9281 6.1508 0 
715 1 0.43 70.00 6.1630 4.4593 0 
716 1 0.44 70.00 22.5574 6.7646 0 
717 1 0.47 70.00 27.5335 3.2073 0 
718 1 0.47 70.00 15.4679 4.8235 0 
719 1 0.49 70.00 4.2172 3.4273 0 
720 1 0.46 70.00 3.0965 4.4704 0 
721 1 0.44 70.00 5.9205 2.1399 0 
722 1 0.47 70.00 9.6693 6.6249 0 
723 1 0.47 70.00 8.5239 2.4415 0 
724 1 0.43 70.00 12.1882 0.7640 0 
725 1 0.49 70.00 2.4667 1.2487 0 
726 1 0.46 70.00 8.2270 3.6272 0 
727 1 0.48 70.00 14.7818 1.0282 0 
728 1 0.47 70.00 12.8078 6.0314 0 
729 1 0.47 70.00 12.8152 6.5393 0 
730 1 0.50 70.00 7.1819 0.8259 0 
731 1 0.45 70.00 14.9982 4.6849 0 
732 1 0.47 70.00 27.2475 2.4429 0 
733 1 0.48 70.00 23.0504 5.7625 0 
734 1 0.50 70.00 12.6204 4.8360 0 
735 1 0.48 70.00 20.5211 5.0439 0 
736 1 0.48 70.00 12.4729 4.6554 0 
737 1 0.46 70.00 27.0508 4.9253 0 
738 1 0.42 70.00 14.1723 2.5979 0 
739 1 0.53 70.00 18.0449 0.8731 0 
740 1 0.47 70.00 13.2129 1.5121 0 
741 1 0.48 70.00 20.2351 0.5214 0 
742 1 0.51 70.00 5.7267 4.6094 0 
743 1 0.53 70.00 8.7001 3.1126 0 
744 1 0.44 70.00 27.3831 3.0515 0 
745 1 0.49 70.00 19.7360 5.6169 0 
746 1 0.52 70.00 3.3662 0.5695 0 
747 1 0.47 70.00 11.2995 6.1557 0 
748 1 0.51 70.00 14.5433 5.8539 0 
749 1 0.45 70.00 27.2743 3.8316 0 
750 1 0.50 70.00 1.2354 4.2364 0 
751 1 0.49 70.00 18.9674 1.7922 0 
752 1 0.45 70.00 4.8511 4.7765 0 
753 1 0.42 70.00 25.7141 3.3230 0 
754 1 0.40 70.00 6.0657 0.9167 0 
755 1 0.43 70.00 15.4242 3.1519 0 
756 1 0.46 70.00 14.1689 6.6062 0 
757 1 0.48 70.00 1.7697 6.3905 0 
758 1 0.53 70.00 26.0029 4.7915 0 
759 1 0.44 70.00 7.7459 0.8503 0 
760 1 0.43 70.00 2.8718 2.6904 0 
761 1 0.48 70.00 9.7240 3.5955 0 
762 1 0.47 70.00 24.3112 1.7402 0 
763 1 0.46 70.00 11.9194 0.7865 0 
764 1 0.45 70.00 7.3702 3.9944 0 
765 1 0.49 70.00 26.0063 1.5338 0 
766 1 0.46 70.00 12.1761 4.1719 0 
767 1 0.49 70.00 18.1146 4.7014 0 
768 1 0.50 70.00 19.9795 6.3931 0 
769 1 0.47 70.00 6.0294 5.1127 0 
770 1 0.46 70.00 8.6412 0.8580 0 
771 1 0.44 70.00 2.4499 0.9191 0 
772 1 0.45 70.00 5.3787 3.2121 0 
773 1 0.43 70.00 4.5717 5.8686 0 
774 1 0.48 70.00 25.5953 4.5341 0 
775 1 0.42 70.00 2.1713 6.7328 0 
776 1 0.45 70.00 20.6258 4.3915 0 
777 1 0.46 70.00 25.9852 5.8548 0 
778 1 0.48 70.00 12.3950 5.7427 0 
779 1 0.45 70.00 8.3715 0.6830 0 
780 1 0.49 70.00 8.6975 6.2967 0 
781 1 0.47 70.00 8.8099 2.0654 0 
782 1 0.55 70.00 23.5420 2.7547 0 
783 1 0.50 70.00 21.6244 1.3141 0 
784 1 0.44 70.00 17.8244 3.4146 0 
785 1 0.47 70.00 13.7028 2.8386 0 
786 1 0.42 70.00 17.4114 3.9167 0 
787 1 0.46 70.00 10.1733 3.2161 0 
788 1 0.45 70.00 25.2743 4.8095 0 
789 1 0.42 70.00 2.6458 3.8549 0 
790 1 0.47 70.00 16.2327 2.5754 0 
791 1 0.49 70.00 5.4219 0.8144 0 
792 1 0.41 70.00 0.8629 2.3619 0 
793 1 0.43 70.00 10.8812 3.6193 0 
794 1 0.54 70.00 26.8158 0.6265 0 
795 1 0.45 70.00 16.5204 6.5267 0 
796 1 0.47 70.00 0.8549 5.0294 0 
797 1 0.48 70.00 11.5814 5.3146 0 
798 1 0.48 70.00 25.5048 3.0307 0 
799 1 0.45 70.00 15.6326 1.7127 0 
800 1 0.46 70.00 3.0367 6.6456 0 
801 1 0.50 70.00 10.9510 6.3102 0 
802 1 0.50 70.00 11.7608 5.7426 0 
803 1 0.44 70.00 11.1794 1.6250 0 
804 1 0.44 70.00 11.4687 3.1698 0 
805 1 0.47 70.00 4.8886 2.1110 0 
806 1 0.46 70.00 26.9062 3.9927 0 
807 1 0.51 70.00 2.6715 4.6118 0 
808 1 0.44 70.00 1.6635 3.4549 0 
809 1 0.48 70.00 17.7425 2.6966 0 
810 1 0.46 70.00 22.2502 5.5047 0 
811 1 0.46 70.00 16.3201 1.9331 0 
812 1 0.48 70.00 22.6805 5.1984 0 
813 1 0.50 70.00 18.6707 4.9381 0 
814 1 0.44 70.00 2.3877 2.8067 0 
815 1 0.46 70.00 22.3515 1.2156 0 
816 1 0.48 70.00 21.9438 3.8895 0 
817 1 0.48 70.00 9.0979 6.7981 0 
818 1 0.46 70.00 5.2565 4.1977 0 
819 1 0.44 70.00 9.2663 3.5917 0 
820 1 0.47 70.00 2.5876 5.6908 0 
821 1 0.44 70.00 20.5248 0.6181 0 
822 1 0.50 70.00 11.6750 2.0909 0 
823 1 0.43 70.00 6.0275 5.6540 0 
824 1 0.45 70.00 21.1558 3.1563 0 
825 1 0.49 70.00 21.0319 1.2053 0 
826 1 0.53 70.00 8.8331 6.6407 0 
827 1 0.50 70.00 25.9322 1.1018 0 
828 1 0.46 70.00 26.3171 3.4421 0 
829 1 0.52 70.00 14.2335 1.8511 0 
830 1 0.49 70.00 19.8772 2.6710 0 
831 1 0.47 70.00 2.1496 4.4403 0 
832 1 0.48 70.00 25.7824 4.7408 0 
833 1 0.41 70.00 9.4005 4.8010 0 
834 1 0.45 70.00 15.9277 1.8405 0 
835 1 0.50 70.00 9.2219 0.6988 0 
836 1 0.49 70.00 27.3662 5.8821 0 
837 1 0.52 70.00 24.7873 0.8566 0 
838 1 0.46 70.00 7.8033 6.3790 0 
839 1 0.49 70.00 18.6722 4.5769 0 
840 1 0.51 70.00 15.6038 0.6546 0 
841 1 0.47 70.00 23.1067 2.8263 0 
842 1 0.50 70.00 10.0092 2.2255 0 
843 1 0.44 70.00 24.3400 5.6569 0 
844 1 0.45 70.00 14.6845 2.1177 0 
845 1 0.46 70.00 5.6449 4.1771 0 
846 1 0.50 70.00 19.9853 1.9202 0 
847 1 0.48 70.00 22.7962 3.5843 0 
848 1 0.51 70.00 3.9661 6.3594 0 
849 1 0.39 70.00 10.3487 6.0887 0 
850 1 0.47 70.00 14.5665 1.1089 0 
851 1 0.47 70.00 14.8908 2.2176 0 
852 1 0.48 70.00 4.7177 3.5439 0 
853 1 0.43 70.00 1.8306 4.8694 0 
854 1 0.46 70.00 25.5993 1.7529 0 
855 1 0.54 70.00 26.9411 2.5018 0 
856 1 0.46 70.00 24.3611 0.6061 0 
857 1 0.48 70.00 21.9274 1.4803 0 
858 1 0.46 70.00 6.0283 4.3055 0 
859 1 0.52 70.00 17.0350 5.9518 0 
860 1 0.43 70.00 24.3739 2.9208 0 
861 1 0.48 70.00 4.1796 5.2368 0 
862 1 0.50 70.00 15.2564 5.0048 0 
863 1 0.45 70.00 16.1845 5.9340 0 
864 1 0.45 70.00 7.6312 5.4790 0 
865 1 0.51 70.00 9.6395 2.3682 0 