# LAMMPS data file for rigid bodies

1764 atoms

2 atom types

0.0 	 28.0 	 xlo xhi 
0.0 	 7.0 	 ylo yhi 
-1.0 	 1.0 	 zlo zhi 

Atoms

1 1 0.48 70.00 11.1895 2.1497 0 
2 1 0.46 70.00 19.4046 5.3674 0 
3 1 0.42 70.00 26.5676 2.3376 0 
4 1 0.46 70.00 10.6311 2.4305 0 
5 1 0.54 70.00 22.1875 6.6109 0 
6 1 0.50 70.00 13.5281 1.3937 0 
7 1 0.51 70.00 27.7259 4.6473 0 
8 1 0.48 70.00 25.2861 1.8428 0 
9 1 0.50 70.00 15.4924 5.0754 0 
10 1 0.42 70.00 11.1953 6.5338 0 
11 1 0.48 70.00 1.2872 4.2909 0 
12 1 0.46 70.00 25.9385 1.5140 0 
13 1 0.48 70.00 1.7484 6.5211 0 
14 1 0.49 70.00 22.3884 4.5149 0 
15 1 0.51 70.00 8.1181 0.7944 0 
16 1 0.45 70.00 9.4537 4.2738 0 
17 1 0.48 70.00 7.9801 1.2047 0 
18 1 0.51 70.00 8.5320 3.9795 0 
19 1 0.47 70.00 10.4818 5.0371 0 
20 1 0.44 70.00 3.7382 6.7987 0 
21 1 0.47 70.00 7.9689 1.6923 0 
22 1 0.44 70.00 14.4163 1.1145 0 
23 1 0.48 70.00 21.1778 5.0963 0 
24 1 0.44 70.00 5.4679 4.5238 0 
25 1 0.45 70.00 5.1984 5.0058 0 
26 1 0.46 70.00 18.7199 0.9772 0 
27 1 0.51 70.00 16.2252 6.3498 0 
28 1 0.50 70.00 22.1907 0.7936 0 
29 1 0.43 70.00 12.7082 1.0035 0 
30 1 0.41 70.00 13.3059 6.3883 0 
31 1 0.36 70.00 18.5586 4.5247 0 
32 1 0.48 70.00 6.6826 1.3287 0 
33 1 0.51 70.00 21.0569 5.6024 0 
34 1 0.51 70.00 11.4012 0.5070 0 
35 1 0.47 70.00 6.6795 4.3255 0 
36 1 0.43 70.00 12.9033 0.7563 0 
37 1 0.46 70.00 13.0270 2.7133 0 
38 1 0.51 70.00 5.8104 1.4251 0 
39 1 0.50 70.00 7.8938 3.3375 0 
40 1 0.44 70.00 1.0358 6.2514 0 
41 1 0.50 70.00 20.8143 1.6603 0 
42 1 0.42 70.00 5.9610 6.5060 0 
43 1 0.53 70.00 14.9241 2.3714 0 
44 1 0.49 70.00 26.1265 1.0356 0 
45 1 0.48 70.00 14.4071 5.8066 0 
46 1 0.42 70.00 9.5866 2.6876 0 
47 1 0.52 70.00 6.7959 5.8364 0 
48 1 0.45 70.00 26.6985 6.2630 0 
49 1 0.51 70.00 20.6070 2.5675 0 
50 1 0.47 70.00 16.9859 5.3650 0 
51 1 0.43 70.00 5.2339 4.3141 0 
52 1 0.50 70.00 23.2720 4.4227 0 
53 1 0.46 70.00 5.2576 6.3088 0 
54 1 0.45 70.00 17.5831 2.0941 0 
55 1 0.46 70.00 24.3655 6.2542 0 
56 1 0.46 70.00 0.9902 3.9601 0 
57 1 0.49 70.00 6.1292 3.9229 0 
58 1 0.55 70.00 13.6503 3.4073 0 
59 1 0.47 70.00 20.5756 6.0652 0 
60 1 0.44 70.00 25.8207 2.8475 0 
61 1 0.44 70.00 22.2398 6.0609 0 
62 1 0.47 70.00 7.5184 3.6381 0 
63 1 0.47 70.00 10.1676 4.8133 0 
64 1 0.49 70.00 26.7791 3.5992 0 
65 1 0.44 70.00 21.3171 6.5468 0 
66 1 0.44 70.00 11.6329 1.9156 0 
67 1 0.52 70.00 19.9503 2.3428 0 
68 1 0.47 70.00 19.2992 5.6271 0 
69 1 0.47 70.00 1.1896 4.7826 0 
70 1 0.46 70.00 17.1845 1.2321 0 
71 1 0.44 70.00 2.9105 4.2989 0 
72 1 0.48 70.00 27.4119 1.8054 0 
73 1 0.50 70.00 27.0475 3.1197 0 
74 1 0.49 70.00 24.0325 3.8965 0 
75 1 0.52 70.00 12.3378 4.8786 0 
76 1 0.49 70.00 14.9262 5.7023 0 
77 1 0.44 70.00 18.7579 4.8319 0 
78 1 0.42 70.00 19.3693 4.1970 0 
79 1 0.50 70.00 18.3623 5.0387 0 
80 1 0.43 70.00 13.7817 0.6301 0 
81 1 0.46 70.00 4.6845 2.0270 0 
82 1 0.45 70.00 2.4123 4.1718 0 
83 1 0.48 70.00 15.7949 5.0467 0 
84 1 0.50 70.00 26.7301 1.5193 0 
85 1 0.47 70.00 21.3593 0.8713 0 
86 1 0.45 70.00 18.1149 6.1435 0 
87 1 0.52 70.00 3.2616 2.4582 0 
88 1 0.49 70.00 7.0200 3.4707 0 
89 1 0.48 70.00 25.8706 3.9817 0 
90 1 0.43 70.00 22.8435 2.3249 0 
91 1 0.50 70.00 6.6979 5.1622 0 
92 1 0.48 70.00 23.7215 0.6273 0 
93 1 0.46 70.00 25.4964 4.4291 0 
94 1 0.49 70.00 19.5314 2.4603 0 
95 1 0.46 70.00 27.2007 5.7400 0 
96 1 0.51 70.00 7.4403 4.9257 0 
97 1 0.45 70.00 12.4492 5.9670 0 
98 1 0.47 70.00 23.9768 0.5712 0 
99 1 0.48 70.00 22.4638 5.8014 0 
100 1 0.47 70.00 21.9448 1.1815 0 
101 1 0.46 70.00 26.3163 5.1904 0 
102 1 0.43 70.00 15.5039 0.9654 0 
103 1 0.43 70.00 13.1233 4.1195 0 
104 1 0.43 70.00 27.3688 5.1620 0 
105 1 0.52 70.00 6.6252 6.7478 0 
106 1 0.45 70.00 4.7961 3.5400 0 
107 1 0.44 70.00 21.0712 1.2251 0 
108 1 0.50 70.00 19.5165 3.3097 0 
109 1 0.47 70.00 12.8856 4.6770 0 
110 1 0.47 70.00 26.3444 1.7236 0 
111 1 0.48 70.00 11.4040 2.0051 0 
112 1 0.49 70.00 21.4394 5.7132 0 
113 1 0.48 70.00 11.3743 5.0658 0 
114 1 0.51 70.00 20.5862 1.8166 0 
115 1 0.45 70.00 22.5203 6.7774 0 
116 1 0.49 70.00 3.3230 1.6530 0 
117 1 0.50 70.00 19.7507 5.8748 0 
118 1 0.48 70.00 1.7858 0.6186 0 
119 1 0.49 70.00 19.5436 1.8630 0 
120 1 0.50 70.00 25.9713 5.1870 0 
121 1 0.47 70.00 21.4039 2.4129 0 
122 1 0.52 70.00 16.0954 3.7941 0 
123 1 0.41 70.00 23.0060 0.8912 0 
124 1 0.50 70.00 3.8376 2.7286 0 
125 1 0.47 70.00 16.9493 3.1819 0 
126 1 0.47 70.00 10.5079 2.7239 0 
127 1 0.51 70.00 18.5507 4.9641 0 
128 1 0.49 70.00 5.0203 0.7430 0 
129 1 0.49 70.00 3.9207 1.1098 0 
130 1 0.48 70.00 6.9244 4.9738 0 
131 1 0.49 70.00 2.9475 5.8859 0 
132 1 0.44 70.00 19.8904 2.1447 0 
133 1 0.44 70.00 2.4205 4.4350 0 
134 1 0.43 70.00 11.3236 1.7079 0 
135 1 0.40 70.00 16.3528 2.0404 0 
136 1 0.43 70.00 21.6582 3.6597 0 
137 1 0.56 70.00 7.3462 6.5022 0 
138 1 0.45 70.00 7.7447 4.1102 0 
139 1 0.49 70.00 5.0518 1.6630 0 
140 1 0.46 70.00 25.5726 1.1902 0 
141 1 0.46 70.00 25.7496 5.8976 0 
142 1 0.51 70.00 16.5432 3.3137 0 
143 1 0.46 70.00 19.2888 3.9850 0 
144 1 0.45 70.00 15.2885 0.6640 0 
145 1 0.43 70.00 5.1302 5.7989 0 
146 1 0.47 70.00 1.5420 2.2366 0 
147 1 0.44 70.00 1.7254 4.3356 0 
148 1 0.46 70.00 9.2397 6.4098 0 
149 1 0.46 70.00 19.5903 2.2295 0 
150 1 0.50 70.00 13.9092 3.9640 0 
151 1 0.45 70.00 17.6338 4.7303 0 
152 1 0.45 70.00 19.1764 1.6710 0 
153 1 0.52 70.00 4.5285 2.9386 0 
154 1 0.48 70.00 14.4503 2.7810 0 
155 1 0.44 70.00 26.9960 3.8120 0 
156 1 0.50 70.00 11.8053 3.8443 0 
157 1 0.45 70.00 18.3668 2.5283 0 
158 1 0.51 70.00 25.4319 6.6715 0 
159 1 0.46 70.00 26.3550 2.7354 0 
160 1 0.47 70.00 4.4611 6.2414 0 
161 1 0.45 70.00 10.8719 6.3296 0 
162 1 0.47 70.00 7.2418 5.3733 0 
163 1 0.43 70.00 2.8224 1.7962 0 
164 1 0.50 70.00 17.9948 4.2836 0 
165 1 0.50 70.00 19.0055 3.0738 0 
166 1 0.53 70.00 8.0766 6.0276 0 
167 1 0.45 70.00 1.3802 1.2101 0 
168 1 0.45 70.00 22.5471 3.4411 0 
169 1 0.49 70.00 2.4393 3.0568 0 
170 1 0.46 70.00 8.6982 3.5504 0 
171 1 0.46 70.00 22.2814 2.8885 0 
172 1 0.46 70.00 23.6021 6.5354 0 
173 1 0.44 70.00 8.3921 2.7867 0 
174 1 0.48 70.00 27.4774 2.6271 0 
175 1 0.50 70.00 3.6869 3.7924 0 
176 1 0.44 70.00 4.1363 3.0357 0 
177 1 0.51 70.00 17.0561 6.7207 0 
178 1 0.45 70.00 27.7439 6.1150 0 
179 1 0.42 70.00 24.0749 6.3993 0 
180 1 0.44 70.00 12.0537 2.4812 0 
181 1 0.51 70.00 9.7404 1.0260 0 
182 1 0.50 70.00 6.4629 1.9429 0 
183 1 0.49 70.00 15.8906 1.9624 0 
184 1 0.47 70.00 16.7972 6.0941 0 
185 1 0.47 70.00 10.9492 0.5104 0 
186 1 0.47 70.00 15.7797 6.2701 0 
187 1 0.45 70.00 10.6639 3.4475 0 
188 1 0.49 70.00 3.4046 3.2724 0 
189 1 0.50 70.00 3.2623 6.3177 0 
190 1 0.47 70.00 22.7743 4.8534 0 
191 1 0.49 70.00 5.5013 5.5800 0 
192 1 0.51 70.00 20.3147 1.0102 0 
193 1 0.46 70.00 17.6366 4.1086 0 
194 1 0.47 70.00 2.3103 2.1691 0 
195 1 0.44 70.00 7.5049 4.3698 0 
196 1 0.47 70.00 4.2351 3.2168 0 
197 1 0.44 70.00 21.0723 6.2035 0 
198 1 0.48 70.00 13.4785 3.5633 0 
199 1 0.48 70.00 23.5908 5.8157 0 
200 1 0.42 70.00 18.6813 4.2921 0 
201 1 0.41 70.00 10.9618 1.2632 0 
202 1 0.47 70.00 25.1321 5.1998 0 
203 1 0.46 70.00 8.5103 5.8793 0 
204 1 0.46 70.00 19.8575 6.3765 0 
205 1 0.51 70.00 18.2015 5.7763 0 
206 1 0.46 70.00 2.0297 1.7871 0 
207 1 0.42 70.00 27.0633 3.4797 0 
208 1 0.50 70.00 23.8407 0.7927 0 
209 1 0.48 70.00 10.5159 4.3630 0 
210 1 0.43 70.00 24.9667 6.5601 0 
211 1 0.42 70.00 10.7008 3.0123 0 
212 1 0.52 70.00 11.2475 3.7022 0 
213 1 0.54 70.00 16.1510 0.8687 0 
214 1 0.47 70.00 7.7508 1.3823 0 
215 1 0.47 70.00 17.5815 5.3738 0 
216 1 0.44 70.00 27.3673 6.3322 0 
217 1 0.44 70.00 0.9506 3.1062 0 
218 1 0.41 70.00 18.1134 0.7432 0 
219 1 0.44 70.00 5.7500 1.9446 0 
220 1 0.46 70.00 18.1315 1.5727 0 
221 1 0.43 70.00 9.0101 2.9377 0 
222 1 0.49 70.00 2.0292 4.9300 0 
223 1 0.51 70.00 11.4556 6.2674 0 
224 1 0.45 70.00 12.3136 5.7264 0 
225 1 0.51 70.00 13.7511 4.8103 0 
226 1 0.47 70.00 6.8420 3.2220 0 
227 1 0.49 70.00 4.7705 4.0250 0 
228 1 0.47 70.00 8.1957 2.3388 0 
229 1 0.46 70.00 13.1557 0.9312 0 
230 1 0.46 70.00 26.2176 6.6466 0 
231 1 0.48 70.00 10.1800 5.8743 0 
232 1 0.50 70.00 10.1255 1.9836 0 
233 1 0.49 70.00 27.3680 3.6588 0 
234 1 0.53 70.00 22.6156 1.3243 0 
235 1 0.44 70.00 14.1756 5.0769 0 
236 1 0.46 70.00 15.1847 4.9953 0 
237 1 0.41 70.00 11.4917 4.8842 0 
238 1 0.45 70.00 20.3048 3.3535 0 
239 1 0.46 70.00 23.5453 1.3306 0 
240 1 0.45 70.00 0.8530 6.7087 0 
241 1 0.45 70.00 12.3655 6.5514 0 
242 1 0.46 70.00 11.1945 2.3855 0 
243 1 0.47 70.00 20.3952 1.2198 0 
244 1 0.49 70.00 5.0296 4.8786 0 
245 1 0.41 70.00 13.4621 4.8618 0 
246 1 0.49 70.00 15.1061 6.7041 0 
247 1 0.49 70.00 26.5733 5.5730 0 
248 1 0.46 70.00 0.6437 0.6002 0 
249 1 0.46 70.00 1.2302 3.6394 0 
250 1 0.49 70.00 25.4384 3.2646 0 
251 1 0.43 70.00 27.4205 1.0265 0 
252 1 0.43 70.00 24.1406 1.7438 0 
253 1 0.47 70.00 17.4185 4.1755 0 
254 1 0.48 70.00 17.3873 2.5453 0 
255 1 0.49 70.00 7.5539 0.6119 0 
256 1 0.48 70.00 26.0621 6.3932 0 
257 1 0.48 70.00 1.7546 5.7312 0 
258 1 0.43 70.00 11.8531 5.3728 0 
259 1 0.46 70.00 6.5348 3.2140 0 
260 1 0.46 70.00 26.0949 2.2616 0 
261 1 0.50 70.00 4.6929 3.2474 0 
262 1 0.51 70.00 25.0054 6.1415 0 
263 1 0.42 70.00 7.3388 2.3838 0 
264 1 0.48 70.00 15.2315 1.9324 0 
265 1 0.46 70.00 4.4615 3.7654 0 
266 1 0.43 70.00 8.8590 0.5421 0 
267 1 0.49 70.00 17.7860 5.5501 0 
268 1 0.42 70.00 11.9711 0.9252 0 
269 1 0.46 70.00 24.3311 1.5111 0 
270 1 0.47 70.00 11.1824 1.3042 0 
271 1 0.48 70.00 6.5021 1.6952 0 
272 1 0.41 70.00 25.0226 4.4324 0 
273 1 0.46 70.00 1.4785 4.5531 0 
274 1 0.48 70.00 11.4917 6.6272 0 
275 1 0.48 70.00 5.2482 1.2386 0 
276 1 0.43 70.00 20.1028 5.9529 0 
277 1 0.53 70.00 25.5863 2.8193 0 
278 1 0.42 70.00 20.7148 0.7333 0 
279 1 0.52 70.00 10.3944 3.8906 0 
280 1 0.48 70.00 9.2496 3.4362 0 
281 1 0.46 70.00 3.7273 5.1476 0 
282 1 0.48 70.00 15.9796 4.1279 0 
283 1 0.44 70.00 21.7637 3.4577 0 
284 1 0.45 70.00 6.5086 5.5037 0 
285 1 0.46 70.00 27.6828 2.4219 0 
286 1 0.46 70.00 23.2684 2.7578 0 
287 1 0.44 70.00 12.3516 2.7846 0 
288 1 0.50 70.00 9.7518 3.6617 0 
289 1 0.45 70.00 26.5371 4.4498 0 
290 1 0.54 70.00 17.3435 2.8203 0 
291 1 0.48 70.00 11.8134 1.7932 0 
292 1 0.48 70.00 25.9052 4.9021 0 
293 1 0.49 70.00 3.5728 1.3681 0 
294 1 0.44 70.00 17.5413 1.2165 0 
295 1 0.46 70.00 9.6486 4.0247 0 
296 1 0.47 70.00 14.8860 4.4351 0 
297 1 0.48 70.00 15.8167 2.3421 0 
298 1 0.47 70.00 27.5680 6.4799 0 
299 1 0.49 70.00 18.8782 3.4214 0 
300 1 0.49 70.00 2.6456 4.6055 0 
301 1 0.47 70.00 11.9363 5.0424 0 
302 1 0.44 70.00 20.4462 3.9524 0 
303 1 0.51 70.00 15.9064 0.6093 0 
304 1 0.42 70.00 8.4017 6.5143 0 
305 1 0.46 70.00 12.9130 3.8980 0 
306 1 0.44 70.00 15.6567 0.5771 0 
307 1 0.42 70.00 16.3141 2.8890 0 
308 1 0.47 70.00 10.9626 4.2462 0 
309 1 0.44 70.00 27.4351 5.6273 0 
310 1 0.46 70.00 4.8706 5.1872 0 
311 1 0.49 70.00 20.5569 3.2624 0 
312 1 0.47 70.00 5.1960 5.2391 0 
313 1 0.44 70.00 12.6852 0.6277 0 
314 1 0.46 70.00 15.2226 6.5389 0 
315 1 0.51 70.00 2.1647 6.7188 0 
316 1 0.54 70.00 10.5652 1.4233 0 
317 1 0.51 70.00 22.0288 2.5828 0 
318 1 0.54 70.00 21.3447 6.0961 0 
319 1 0.42 70.00 25.9689 0.5222 0 
320 1 0.44 70.00 10.3323 5.3867 0 
321 1 0.52 70.00 22.9742 4.9080 0 
322 1 0.48 70.00 0.6027 2.3050 0 
323 1 0.50 70.00 19.2519 3.4561 0 
324 1 0.49 70.00 15.0858 3.0553 0 
325 1 0.51 70.00 22.6345 3.0679 0 
326 1 0.44 70.00 0.9992 5.4189 0 
327 1 0.39 70.00 14.4608 1.4421 0 
328 1 0.47 70.00 16.9790 2.9143 0 
329 1 0.49 70.00 2.1908 5.8331 0 
330 1 0.44 70.00 23.2523 5.9880 0 
331 1 0.47 70.00 13.1234 3.4078 0 
332 1 0.46 70.00 15.6738 5.3605 0 
333 1 0.46 70.00 5.7157 0.6617 0 
334 1 0.47 70.00 19.7284 4.0525 0 
335 1 0.50 70.00 10.2141 1.6991 0 
336 1 0.48 70.00 13.5750 6.6880 0 
337 1 0.50 70.00 9.7293 6.3747 0 
338 1 0.50 70.00 27.7362 6.7599 0 
339 1 0.50 70.00 16.3596 4.5110 0 
340 1 0.51 70.00 5.3784 6.4918 0 
341 1 0.40 70.00 11.6559 5.3249 0 
342 1 0.46 70.00 8.6582 3.2099 0 
343 1 0.49 70.00 5.1525 3.3762 0 
344 1 0.49 70.00 9.0796 2.6377 0 
345 1 0.51 70.00 13.4155 5.7560 0 
346 1 0.43 70.00 9.8899 1.8215 0 
347 1 0.50 70.00 17.9281 1.4322 0 
348 1 0.52 70.00 23.9498 1.6204 0 
349 1 0.51 70.00 27.5107 2.2443 0 
350 1 0.49 70.00 11.6461 1.0832 0 
351 1 0.43 70.00 13.7516 4.2661 0 
352 1 0.43 70.00 14.9233 2.8367 0 
353 1 0.47 70.00 12.7962 3.7026 0 
354 1 0.49 70.00 1.1154 2.4379 0 
355 1 0.45 70.00 25.0328 3.2730 0 
356 1 0.50 70.00 14.5459 0.8469 0 
357 1 0.49 70.00 1.9600 4.3078 0 
358 1 0.51 70.00 10.7893 4.9039 0 
359 1 0.50 70.00 11.0633 5.1784 0 
360 1 0.41 70.00 10.7086 1.7900 0 
361 1 0.48 70.00 21.2991 1.5575 0 
362 1 0.50 70.00 2.0194 5.7015 0 
363 1 0.46 70.00 3.8688 6.1256 0 
364 1 0.47 70.00 15.8594 4.7700 0 
365 1 0.38 70.00 6.1066 5.1964 0 
366 1 0.51 70.00 11.6225 0.7018 0 
367 1 0.49 70.00 1.2815 1.8652 0 
368 1 0.47 70.00 19.6259 4.6998 0 
369 1 0.47 70.00 20.0521 1.6291 0 
370 1 0.45 70.00 22.6756 6.1029 0 
371 1 0.50 70.00 10.4104 2.4999 0 
372 1 0.44 70.00 2.0369 2.9392 0 
373 1 0.47 70.00 13.3536 4.4376 0 
374 1 0.45 70.00 8.3553 3.0123 0 
375 1 0.49 70.00 1.8256 1.8319 0 
376 1 0.47 70.00 27.6026 3.9245 0 
377 1 0.47 70.00 0.5949 6.4380 0 
378 1 0.46 70.00 20.1472 5.1129 0 
379 1 0.46 70.00 6.6605 3.9644 0 
380 1 0.48 70.00 6.0961 1.4290 0 
381 1 0.49 70.00 12.0056 6.5790 0 
382 1 0.47 70.00 23.3911 2.1633 0 
383 1 0.45 70.00 16.2663 2.4024 0 
384 1 0.44 70.00 1.2742 3.1264 0 
385 1 0.46 70.00 20.0081 1.1877 0 
386 1 0.47 70.00 8.7861 0.9745 0 
387 1 0.48 70.00 6.1625 6.4052 0 
388 1 0.41 70.00 24.7067 2.8849 0 
389 1 0.46 70.00 20.3010 5.4767 0 
390 1 0.47 70.00 9.5936 1.2500 0 
391 1 0.41 70.00 10.1897 1.0526 0 
392 1 0.50 70.00 16.6698 6.3120 0 
393 1 0.50 70.00 8.7955 1.2479 0 
394 1 0.46 70.00 5.5270 3.1446 0 
395 1 0.50 70.00 13.9178 1.2641 0 
396 1 0.50 70.00 24.7691 0.9445 0 
397 1 0.54 70.00 1.7323 3.9275 0 
398 1 0.46 70.00 10.0028 3.1833 0 
399 1 0.46 70.00 19.9353 3.0825 0 
400 1 0.43 70.00 11.8552 0.5087 0 
401 1 0.45 70.00 15.2023 1.2322 0 
402 1 0.49 70.00 26.2271 4.2895 0 
403 1 0.50 70.00 7.0608 5.9691 0 
404 1 0.53 70.00 13.4624 6.2041 0 
405 1 0.50 70.00 2.5051 5.1201 0 
406 1 0.52 70.00 19.8015 2.8231 0 
407 1 0.44 70.00 5.8790 5.3454 0 
408 1 0.42 70.00 14.1506 0.8059 0 
409 1 0.52 70.00 20.8423 1.1008 0 
410 1 0.47 70.00 19.6156 3.8351 0 
411 1 0.47 70.00 12.9022 4.1080 0 
412 1 0.47 70.00 24.3638 3.7466 0 
413 1 0.41 70.00 18.6348 5.4966 0 
414 1 0.50 70.00 2.4318 5.6456 0 
415 1 0.44 70.00 14.9888 1.2112 0 
416 1 0.43 70.00 0.7160 3.7432 0 
417 1 0.50 70.00 18.4061 5.5225 0 
418 1 0.49 70.00 14.8019 6.1635 0 
419 1 0.44 70.00 14.2935 1.8345 0 
420 1 0.49 70.00 16.5468 2.7101 0 
421 1 0.38 70.00 7.1100 1.5763 0 
422 1 0.49 70.00 6.4300 2.8544 0 
423 1 0.52 70.00 25.4648 5.3589 0 
424 1 0.50 70.00 5.9621 2.6754 0 
425 1 0.45 70.00 19.3670 0.6744 0 
426 1 0.50 70.00 25.7324 2.1097 0 
427 1 0.46 70.00 25.3068 2.1466 0 
428 1 0.50 70.00 20.4976 6.6020 0 
429 1 0.45 70.00 1.9177 6.7034 0 
430 1 0.47 70.00 7.1846 6.7257 0 
431 1 0.51 70.00 12.5967 1.5628 0 
432 1 0.45 70.00 21.3533 3.6560 0 
433 1 0.51 70.00 22.1474 5.2374 0 
434 1 0.48 70.00 1.7808 3.4965 0 
435 1 0.44 70.00 19.1776 2.3537 0 
436 1 0.47 70.00 3.3679 5.2768 0 
437 1 0.44 70.00 14.2169 6.4939 0 
438 1 0.50 70.00 12.8951 5.5678 0 
439 1 0.47 70.00 5.7158 5.5270 0 
440 1 0.47 70.00 4.0251 2.1247 0 
441 1 0.47 70.00 9.8057 2.6007 0 
442 1 0.54 70.00 16.6008 2.3922 0 
443 1 0.48 70.00 25.7957 6.2980 0 
444 1 0.47 70.00 23.9773 1.9468 0 
445 1 0.46 70.00 19.6542 1.1514 0 
446 1 0.42 70.00 4.4857 3.4970 0 
447 1 0.46 70.00 23.8329 6.7876 0 
448 1 0.49 70.00 2.0561 3.2206 0 
449 1 0.52 70.00 24.5397 5.5415 0 
450 1 0.49 70.00 6.4712 2.3061 0 
451 1 0.42 70.00 15.2862 3.9211 0 
452 1 0.44 70.00 24.7318 4.6459 0 
453 1 0.47 70.00 4.6639 4.2645 0 
454 1 0.42 70.00 26.1123 3.0027 0 
455 1 0.45 70.00 8.4285 2.5692 0 
456 1 0.48 70.00 15.4103 2.5488 0 
457 1 0.47 70.00 22.4135 4.7458 0 
458 1 0.48 70.00 15.9447 5.5482 0 
459 1 0.52 70.00 19.0108 0.8068 0 
460 1 0.45 70.00 26.5840 5.3575 0 
461 1 0.47 70.00 23.1284 5.6120 0 
462 1 0.44 70.00 27.6391 1.4977 0 
463 1 0.46 70.00 9.1796 5.7559 0 
464 1 0.53 70.00 22.6685 5.4555 0 
465 1 0.51 70.00 7.9216 3.0722 0 
466 1 0.48 70.00 21.6858 6.1758 0 
467 1 0.44 70.00 5.5642 2.6839 0 
468 1 0.46 70.00 3.9126 5.5720 0 
469 1 0.47 70.00 11.1184 4.6673 0 
470 1 0.44 70.00 26.8960 5.0574 0 
471 1 0.46 70.00 1.5855 0.8998 0 
472 1 0.49 70.00 27.1852 6.0361 0 
473 1 0.43 70.00 15.4490 3.2885 0 
474 1 0.45 70.00 14.4263 4.3125 0 
475 1 0.45 70.00 22.9362 5.1846 0 
476 1 0.49 70.00 16.3376 1.6076 0 
477 1 0.47 70.00 2.8505 0.7170 0 
478 1 0.48 70.00 15.4256 4.0865 0 
479 1 0.39 70.00 9.0890 6.1107 0 
480 1 0.48 70.00 6.7640 2.1097 0 
481 1 0.47 70.00 17.2874 4.7695 0 
482 1 0.46 70.00 9.0149 2.0417 0 
483 1 0.48 70.00 10.6375 4.0769 0 
484 1 0.48 70.00 15.9056 5.8097 0 
485 1 0.50 70.00 1.6341 2.8641 0 
486 1 0.41 70.00 14.2887 4.0039 0 
487 1 0.47 70.00 16.3908 1.2311 0 
488 1 0.46 70.00 8.9269 3.8847 0 
489 1 0.44 70.00 9.9402 6.4589 0 
490 1 0.47 70.00 7.8073 5.4732 0 
491 1 0.46 70.00 22.7701 1.9536 0 
492 1 0.44 70.00 15.0603 4.7128 0 
493 1 0.41 70.00 19.0267 6.1007 0 
494 1 0.53 70.00 0.5391 0.8528 0 
495 1 0.45 70.00 0.7869 2.6342 0 
496 1 0.45 70.00 2.1756 2.5226 0 
497 1 0.50 70.00 21.9994 1.3852 0 
498 1 0.49 70.00 13.6488 5.5329 0 
499 1 0.44 70.00 5.7172 2.4048 0 
500 1 0.43 70.00 13.7173 0.9963 0 
501 1 0.48 70.00 5.8763 4.0492 0 
502 1 0.44 70.00 20.3656 4.5925 0 
503 1 0.50 70.00 20.6102 6.2916 0 
504 1 0.51 70.00 13.0470 6.0844 0 
505 1 0.50 70.00 5.4083 2.9511 0 
506 1 0.49 70.00 20.8697 0.8873 0 
507 1 0.52 70.00 26.7452 4.7078 0 
508 1 0.45 70.00 10.2904 3.1985 0 
509 1 0.48 70.00 2.3424 1.2396 0 
510 1 0.52 70.00 12.5767 2.1023 0 
511 1 0.40 70.00 22.4403 5.5340 0 
512 1 0.46 70.00 24.7018 6.3735 0 
513 1 0.48 70.00 7.9644 4.8218 0 
514 1 0.52 70.00 3.5014 4.8108 0 
515 1 0.47 70.00 12.8525 1.5055 0 
516 1 0.48 70.00 6.1166 5.4494 0 
517 1 0.41 70.00 26.0452 3.4168 0 
518 1 0.46 70.00 22.0587 3.1410 0 
519 1 0.51 70.00 16.9575 6.3137 0 
520 1 0.53 70.00 10.6751 5.4153 0 
521 1 0.48 70.00 1.5593 5.2623 0 
522 1 0.48 70.00 24.8580 1.7876 0 
523 1 0.41 70.00 9.6766 5.8517 0 
524 1 0.41 70.00 17.4949 6.6239 0 
525 1 0.45 70.00 23.1547 3.4783 0 
526 1 0.50 70.00 18.5661 1.1864 0 
527 1 0.46 70.00 18.8971 6.7768 0 
528 1 0.48 70.00 14.8540 0.9445 0 
529 1 0.48 70.00 25.6645 2.4012 0 
530 1 0.44 70.00 14.9213 3.1892 0 
531 1 0.43 70.00 14.5583 2.5991 0 
532 1 0.49 70.00 21.3063 3.2058 0 
533 1 0.45 70.00 24.3137 2.1612 0 
534 1 0.47 70.00 20.4280 5.1246 0 
535 1 0.45 70.00 18.0397 4.0387 0 
536 1 0.46 70.00 11.7287 2.8651 0 
537 1 0.47 70.00 11.8863 6.0785 0 
538 1 0.45 70.00 22.8783 6.3452 0 
539 1 0.51 70.00 19.0382 5.0159 0 
540 1 0.46 70.00 5.4579 0.5002 0 
541 1 0.47 70.00 17.9375 0.9514 0 
542 1 0.46 70.00 22.8041 0.7588 0 
543 1 0.46 70.00 4.7708 2.5016 0 
544 1 0.43 70.00 24.1007 3.3273 0 
545 1 0.51 70.00 12.3765 5.1685 0 
546 1 0.50 70.00 2.9485 3.2813 0 
547 1 0.48 70.00 14.3477 4.8402 0 
548 1 0.44 70.00 19.1665 6.6067 0 
549 1 0.45 70.00 7.1032 4.6040 0 
550 1 0.52 70.00 15.2614 6.0046 0 
551 1 0.41 70.00 16.7127 2.9996 0 
552 1 0.48 70.00 13.5645 1.8793 0 
553 1 0.47 70.00 0.9709 5.9428 0 
554 1 0.45 70.00 27.4999 4.8058 0 
555 1 0.46 70.00 5.5584 4.0050 0 
556 1 0.48 70.00 0.7618 5.2630 0 
557 1 0.50 70.00 0.5748 1.8887 0 
558 1 0.47 70.00 14.7958 1.3017 0 
559 1 0.45 70.00 24.6856 5.7261 0 
560 1 0.49 70.00 25.6890 6.7717 0 
561 1 0.47 70.00 6.7610 6.3358 0 
562 1 0.50 70.00 13.5324 5.0667 0 
563 1 0.41 70.00 5.3336 4.0410 0 
564 1 0.47 70.00 8.1486 3.3402 0 
565 1 0.45 70.00 14.8727 0.6869 0 
566 1 0.50 70.00 16.0910 5.2903 0 
567 1 0.50 70.00 5.7345 0.8915 0 
568 1 0.46 70.00 19.1664 4.7616 0 
569 1 0.47 70.00 2.9441 1.1411 0 
570 1 0.44 70.00 17.1879 3.7141 0 
571 1 0.49 70.00 20.0327 6.5364 0 
572 1 0.45 70.00 11.7106 6.3752 0 
573 1 0.52 70.00 14.7349 6.6646 0 
574 1 0.40 70.00 23.0255 4.7106 0 
575 1 0.47 70.00 21.4102 5.4707 0 
576 1 0.44 70.00 15.9623 1.6473 0 
577 1 0.43 70.00 11.5339 2.2334 0 
578 1 0.49 70.00 17.7909 2.0373 0 
579 1 0.53 70.00 2.0637 3.6271 0 
580 1 0.44 70.00 4.6915 6.7104 0 
581 1 0.50 70.00 9.2935 1.2758 0 
582 1 0.51 70.00 24.3957 1.2332 0 
583 1 0.45 70.00 8.7150 4.5152 0 
584 1 0.49 70.00 22.8800 4.3761 0 
585 1 0.44 70.00 11.2477 5.3294 0 
586 1 0.49 70.00 27.0014 0.5667 0 
587 1 0.49 70.00 20.1454 4.5464 0 
588 1 0.49 70.00 27.4256 3.1310 0 
589 1 0.44 70.00 19.4939 4.9535 0 
590 1 0.50 70.00 26.5571 0.8291 0 
591 1 0.47 70.00 4.1137 6.2507 0 
592 1 0.49 70.00 17.5876 5.9444 0 
593 1 0.46 70.00 3.9871 4.9963 0 
594 1 0.47 70.00 23.5078 5.3336 0 
595 1 0.46 70.00 24.3443 2.6412 0 
596 1 0.46 70.00 14.0814 4.5147 0 
597 1 0.50 70.00 9.0818 1.0650 0 
598 1 0.47 70.00 16.6129 4.1386 0 
599 1 0.50 70.00 14.9587 4.1309 0 
600 1 0.51 70.00 25.0824 6.3868 0 
601 1 0.49 70.00 10.0874 2.7368 0 
602 1 0.46 70.00 6.6624 2.8875 0 
603 1 0.49 70.00 12.8127 4.9125 0 
604 1 0.55 70.00 10.1545 1.3732 0 
605 1 0.53 70.00 8.6243 4.8371 0 
606 1 0.50 70.00 7.5162 1.5284 0 
607 1 0.50 70.00 15.6614 1.8311 0 
608 1 0.44 70.00 25.5414 6.3722 0 
609 1 0.43 70.00 4.0308 3.3558 0 
610 1 0.43 70.00 8.5399 2.3831 0 
611 1 0.47 70.00 1.0110 5.6431 0 
612 1 0.44 70.00 11.6035 5.7147 0 
613 1 0.49 70.00 1.3021 2.6781 0 
614 1 0.51 70.00 1.6892 4.7623 0 
615 1 0.49 70.00 22.2261 4.0020 0 
616 1 0.49 70.00 14.2419 2.0746 0 
617 1 0.44 70.00 16.9798 4.4928 0 
618 1 0.50 70.00 14.4754 5.1066 0 
619 1 0.43 70.00 8.6051 1.9064 0 
620 1 0.46 70.00 26.2836 5.6548 0 
621 1 0.44 70.00 14.1612 5.9112 0 
622 1 0.44 70.00 6.2013 2.7485 0 
623 1 0.44 70.00 12.2695 4.5114 0 
624 1 0.53 70.00 11.1113 4.0092 0 
625 1 0.50 70.00 2.5115 2.4796 0 
626 1 0.45 70.00 22.0524 5.6090 0 
627 1 0.48 70.00 17.5199 6.3938 0 
628 1 0.50 70.00 17.2391 5.3504 0 
629 1 0.46 70.00 27.1532 1.6135 0 
630 1 0.49 70.00 7.6446 6.4602 0 
631 1 0.49 70.00 13.9980 6.0971 0 
632 1 0.46 70.00 9.6717 4.3787 0 
633 1 0.43 70.00 4.2551 1.7429 0 
634 1 0.51 70.00 11.8312 1.4969 0 
635 1 0.49 70.00 9.1141 5.4559 0 
636 1 0.52 70.00 25.0320 2.1456 0 
637 1 0.46 70.00 20.7157 2.9800 0 
638 1 0.47 70.00 8.1893 2.7679 0 
639 1 0.47 70.00 22.8696 3.6549 0 
640 1 0.43 70.00 22.1223 3.4522 0 
641 1 0.47 70.00 12.0599 2.0534 0 
642 1 0.44 70.00 14.0192 4.9067 0 
643 1 0.47 70.00 6.3561 6.5571 0 
644 1 0.42 70.00 20.2458 2.2594 0 
645 1 0.49 70.00 3.6837 4.9509 0 
646 1 0.47 70.00 6.7161 5.4781 0 
647 1 0.48 70.00 9.8345 1.2392 0 
648 1 0.45 70.00 7.7277 5.0601 0 
649 1 0.42 70.00 27.0159 1.2224 0 
650 1 0.46 70.00 19.9927 0.7533 0 
651 1 0.50 70.00 8.6398 5.6320 0 
652 1 0.49 70.00 0.6670 5.8159 0 
653 1 0.46 70.00 3.3330 3.5828 0 
654 1 0.44 70.00 13.1683 2.0103 0 
655 1 0.47 70.00 22.3737 1.9563 0 
656 1 0.45 70.00 19.9715 4.2212 0 
657 1 0.47 70.00 21.0957 4.6166 0 
658 1 0.51 70.00 23.9370 4.2979 0 
659 1 0.49 70.00 23.2759 1.5676 0 
660 1 0.48 70.00 26.7032 5.1354 0 
661 1 0.41 70.00 17.1226 4.0651 0 
662 1 0.49 70.00 13.7248 1.5435 0 
663 1 0.44 70.00 8.2751 1.8399 0 
664 1 0.48 70.00 8.3822 1.5043 0 
665 1 0.47 70.00 13.4677 4.1231 0 
666 1 0.44 70.00 18.1390 6.5931 0 
667 1 0.47 70.00 5.0871 2.0663 0 
668 1 0.54 70.00 25.3836 3.6363 0 
669 1 0.43 70.00 21.4037 4.9282 0 
670 1 0.51 70.00 15.6072 6.6161 0 
671 1 0.48 70.00 3.0632 3.7235 0 
672 1 0.47 70.00 7.3561 1.3236 0 
673 1 0.50 70.00 16.4643 5.1395 0 
674 1 0.44 70.00 18.5210 2.1148 0 
675 1 0.46 70.00 27.2653 2.8125 0 
676 1 0.48 70.00 13.0895 5.3561 0 
677 1 0.48 70.00 26.7928 3.1916 0 
678 1 0.45 70.00 18.6521 5.9735 0 
679 1 0.39 70.00 26.5907 3.7667 0 
680 1 0.45 70.00 14.7616 3.5192 0 
681 1 0.50 70.00 26.4339 1.1525 0 
682 1 0.46 70.00 1.2510 1.5837 0 
683 1 0.53 70.00 23.8114 4.4800 0 
684 1 0.48 70.00 21.9000 4.9275 0 
685 1 0.43 70.00 2.8458 5.0516 0 
686 1 0.42 70.00 6.6323 6.1117 0 
687 1 0.47 70.00 25.9560 1.2587 0 
688 1 0.38 70.00 21.0336 6.5787 0 
689 1 0.51 70.00 15.3982 1.6902 0 
690 1 0.47 70.00 18.4452 6.3744 0 
691 1 0.47 70.00 7.8896 1.9967 0 
692 1 0.43 70.00 27.7560 5.2807 0 
693 1 0.49 70.00 3.1503 5.8008 0 
694 1 0.44 70.00 9.1218 2.3834 0 
695 1 0.45 70.00 23.3290 1.0393 0 
696 1 0.47 70.00 15.6405 3.1767 0 
697 1 0.52 70.00 11.2489 2.9269 0 
698 1 0.43 70.00 22.8937 3.0062 0 
699 1 0.48 70.00 17.7409 3.2608 0 
700 1 0.46 70.00 2.9945 0.8645 0 
701 1 0.45 70.00 25.6737 3.8761 0 
702 1 0.45 70.00 27.2485 2.4039 0 
703 1 0.44 70.00 1.1492 3.3752 0 
704 1 0.50 70.00 20.7364 3.8676 0 
705 1 0.48 70.00 22.2259 1.1966 0 
706 1 0.48 70.00 27.7715 3.0360 0 
707 1 0.48 70.00 2.4502 4.8092 0 
708 1 0.51 70.00 3.4946 5.6691 0 
709 1 0.43 70.00 16.8060 6.5906 0 
710 1 0.45 70.00 17.6711 1.8680 0 
711 1 0.45 70.00 8.6302 0.6964 0 
712 1 0.49 70.00 4.9766 4.2435 0 
713 1 0.49 70.00 24.7490 4.2579 0 
714 1 0.45 70.00 8.8968 1.5251 0 
715 1 0.43 70.00 1.5388 5.0191 0 
716 1 0.48 70.00 8.0448 1.5001 0 
717 1 0.50 70.00 3.4195 6.6457 0 
718 1 0.51 70.00 8.5685 1.5841 0 
719 1 0.43 70.00 20.7752 2.7011 0 
720 1 0.44 70.00 26.5364 6.7058 0 
721 1 0.50 70.00 4.8282 5.8069 0 
722 1 0.47 70.00 8.4124 4.9030 0 
723 1 0.50 70.00 3.5219 0.8818 0 
724 1 0.48 70.00 16.9535 1.2047 0 
725 1 0.45 70.00 14.6624 2.4090 0 
726 1 0.49 70.00 16.7273 5.2354 0 
727 1 0.49 70.00 24.6034 4.4503 0 
728 1 0.45 70.00 25.1855 4.2465 0 
729 1 0.47 70.00 4.3859 5.9923 0 
730 1 0.49 70.00 23.7655 6.0484 0 
731 1 0.44 70.00 22.3420 3.5360 0 
732 1 0.43 70.00 9.3906 6.2227 0 
733 1 0.44 70.00 2.8541 6.7761 0 
734 1 0.41 70.00 20.2389 2.7692 0 
735 1 0.47 70.00 24.0427 4.5524 0 
736 1 0.52 70.00 21.0724 3.2495 0 
737 1 0.50 70.00 15.1962 1.7116 0 
738 1 0.49 70.00 12.6689 6.6987 0 
739 1 0.51 70.00 5.3677 1.9314 0 
740 1 0.51 70.00 14.2647 5.5560 0 
741 1 0.41 70.00 21.7809 5.1798 0 
742 1 0.41 70.00 25.2376 2.9162 0 
743 1 0.43 70.00 9.4408 3.7620 0 
744 1 0.45 70.00 18.7584 6.3705 0 
745 1 0.45 70.00 24.1125 1.1470 0 
746 1 0.47 70.00 12.3346 1.7730 0 
747 1 0.49 70.00 16.4493 6.4927 0 
748 1 0.47 70.00 19.2375 2.8143 0 
749 1 0.43 70.00 27.6496 4.2106 0 
750 1 0.47 70.00 11.7456 2.6169 0 
751 1 0.46 70.00 24.4583 5.2795 0 
752 1 0.51 70.00 22.5156 4.9574 0 
753 1 0.45 70.00 3.4486 3.7942 0 
754 1 0.50 70.00 22.3049 2.1999 0 
755 1 0.47 70.00 7.0753 4.3213 0 
756 1 0.49 70.00 11.0438 0.9653 0 
757 1 0.48 70.00 24.3555 4.1246 0 
758 1 0.47 70.00 2.3428 5.2430 0 
759 1 0.43 70.00 7.2982 4.4938 0 
760 1 0.46 70.00 9.5485 1.8369 0 
761 1 0.43 70.00 13.5893 5.9382 0 
762 1 0.44 70.00 17.8336 4.5963 0 
763 1 0.48 70.00 9.9280 0.5051 0 
764 1 0.38 70.00 7.7287 6.6526 0 
765 1 0.47 70.00 10.7173 5.2017 0 
766 1 0.47 70.00 27.1766 0.6887 0 
767 1 0.45 70.00 9.6292 5.5636 0 
768 1 0.48 70.00 25.5636 6.0894 0 
769 1 0.53 70.00 24.5329 4.9376 0 
770 1 0.46 70.00 20.8362 5.3082 0 
771 1 0.43 70.00 5.9260 5.0540 0 
772 1 0.47 70.00 15.0618 0.5081 0 
773 1 0.46 70.00 5.2976 1.0143 0 
774 1 0.50 70.00 12.7798 5.8303 0 
775 1 0.48 70.00 12.6653 2.5101 0 
776 1 0.49 70.00 21.8761 5.4984 0 
777 1 0.48 70.00 9.8744 4.4468 0 
778 1 0.47 70.00 9.6158 4.6108 0 
779 1 0.48 70.00 3.4855 6.1661 0 
780 1 0.48 70.00 27.5493 3.3825 0 
781 1 0.43 70.00 14.4485 6.4232 0 
782 1 0.50 70.00 1.5055 3.8054 0 
783 1 0.44 70.00 13.1790 4.8878 0 
784 1 0.49 70.00 9.9773 4.6710 0 
785 1 0.47 70.00 12.2812 3.3465 0 
786 1 0.46 70.00 17.1119 1.8664 0 
787 1 0.49 70.00 3.0219 2.5659 0 
788 1 0.49 70.00 7.8100 3.7516 0 
789 1 0.46 70.00 5.1703 1.4613 0 
790 1 0.49 70.00 6.0725 3.7250 0 
791 1 0.45 70.00 11.5824 1.5381 0 
792 1 0.46 70.00 5.9313 5.9789 0 
793 1 0.49 70.00 21.7305 0.7837 0 
794 1 0.42 70.00 5.2357 3.6157 0 
795 1 0.48 70.00 6.0645 0.5857 0 
796 1 0.45 70.00 23.8638 5.3459 0 
797 1 0.45 70.00 25.3339 5.8063 0 
798 1 0.50 70.00 26.6226 2.0964 0 
799 1 0.46 70.00 4.0521 5.8954 0 
800 1 0.51 70.00 18.5765 0.7298 0 
801 1 0.51 70.00 18.0725 3.4256 0 
802 1 0.41 70.00 9.9629 5.6659 0 
803 1 0.47 70.00 6.4414 5.1061 0 
804 1 0.43 70.00 3.2752 2.0607 0 
805 1 0.40 70.00 23.6751 2.9366 0 
806 1 0.48 70.00 20.9059 1.9198 0 
807 1 0.48 70.00 11.0585 1.8860 0 
808 1 0.47 70.00 3.4685 0.5015 0 
809 1 0.51 70.00 4.1783 4.9345 0 
810 1 0.44 70.00 24.6788 0.6874 0 
811 1 0.40 70.00 12.5586 4.5560 0 
812 1 0.50 70.00 21.1743 2.6910 0 
813 1 0.48 70.00 14.6546 5.2103 0 
814 1 0.41 70.00 19.5254 3.0955 0 
815 1 0.51 70.00 4.9500 4.6296 0 
816 1 0.45 70.00 11.4827 1.2720 0 
817 1 0.48 70.00 19.2599 5.0368 0 
818 1 0.40 70.00 4.8935 2.8672 0 
819 1 0.45 70.00 12.2824 3.9160 0 
820 1 0.52 70.00 24.8188 4.9148 0 
821 1 0.50 70.00 5.6148 1.5980 0 
822 1 0.45 70.00 18.4215 3.1365 0 
823 1 0.44 70.00 21.8458 4.6638 0 
824 1 0.47 70.00 4.8328 1.4754 0 
825 1 0.50 70.00 8.8681 6.4687 0 
826 1 0.45 70.00 21.4787 2.6512 0 
827 1 0.50 70.00 11.0600 1.4994 0 
828 1 0.49 70.00 10.6761 3.7803 0 
829 1 0.48 70.00 8.8355 2.6837 0 
830 1 0.50 70.00 0.9617 2.0864 0 
831 1 0.46 70.00 16.1777 5.6750 0 
832 1 0.43 70.00 4.3954 5.1619 0 
833 1 0.47 70.00 25.1983 0.8325 0 
834 1 0.46 70.00 1.1692 6.0410 0 
835 1 0.50 70.00 14.7101 1.1149 0 
836 1 0.45 70.00 0.9417 1.7247 0 
837 1 0.48 70.00 11.4772 4.2794 0 
838 1 0.47 70.00 1.6153 2.4672 0 
839 1 0.49 70.00 5.2400 2.2814 0 
840 1 0.49 70.00 6.3716 1.3191 0 
841 1 0.45 70.00 17.9766 5.2608 0 
842 1 0.55 70.00 12.4546 2.3987 0 
843 1 0.49 70.00 19.1162 1.1340 0 
844 1 0.46 70.00 21.1485 4.4054 0 
845 1 0.45 70.00 3.7064 5.6848 0 
846 1 0.46 70.00 12.1552 1.0991 0 
847 1 0.43 70.00 13.3861 2.6664 0 
848 1 0.47 70.00 2.6716 6.1570 0 
849 1 0.46 70.00 26.9367 0.7689 0 
850 1 0.45 70.00 12.9263 4.4299 0 
851 1 0.50 70.00 17.2631 5.9962 0 
852 1 0.47 70.00 10.6591 6.1213 0 
853 1 0.51 70.00 3.9193 4.3459 0 
854 1 0.50 70.00 21.6478 2.8282 0 
855 1 0.50 70.00 10.4402 0.7327 0 
856 1 0.50 70.00 24.3747 0.6373 0 
857 1 0.43 70.00 16.5564 0.5056 0 
858 1 0.50 70.00 26.2286 0.5165 0 
859 1 0.50 70.00 9.4958 0.6163 0 
860 1 0.49 70.00 15.6209 5.6394 0 
861 1 0.47 70.00 10.6899 4.6626 0 
862 1 0.41 70.00 17.2747 4.4926 0 
863 1 0.52 70.00 21.6845 1.1201 0 
864 1 0.51 70.00 15.7512 3.9840 0 