# LAMMPS data file for rigid bodies

1960 atoms

2 atom types

0.0 	 28.0 	 xlo xhi 
0.0 	 7.0 	 ylo yhi 
-1.0 	 1.0 	 zlo zhi 

Atoms

1 1 0.46 70.00 18.3191 1.5950 0 
2 1 0.46 70.00 2.1610 5.3625 0 
3 1 0.49 70.00 4.0567 2.0124 0 
4 1 0.50 70.00 9.1404 5.6485 0 
5 1 0.51 70.00 8.4790 3.7093 0 
6 1 0.48 70.00 11.5293 2.6560 0 
7 1 0.43 70.00 13.3372 6.4388 0 
8 1 0.46 70.00 23.9183 2.7843 0 
9 1 0.44 70.00 10.8752 4.2364 0 
10 1 0.46 70.00 1.2630 2.9353 0 
11 1 0.47 70.00 9.7387 3.7436 0 
12 1 0.47 70.00 23.6401 1.7562 0 
13 1 0.53 70.00 23.9683 1.8721 0 
14 1 0.45 70.00 25.3083 2.1132 0 
15 1 0.47 70.00 6.1230 6.6491 0 
16 1 0.48 70.00 3.4362 3.0674 0 
17 1 0.47 70.00 9.4631 5.4460 0 
18 1 0.48 70.00 20.6228 2.8839 0 
19 1 0.47 70.00 5.3281 4.3216 0 
20 1 0.49 70.00 6.7087 0.6990 0 
21 1 0.45 70.00 1.9572 5.0514 0 
22 1 0.48 70.00 12.0862 5.6456 0 
23 1 0.43 70.00 24.7526 0.9454 0 
24 1 0.43 70.00 13.1633 6.7064 0 
25 1 0.47 70.00 27.4267 1.8602 0 
26 1 0.49 70.00 23.4075 0.5913 0 
27 1 0.41 70.00 7.6697 3.6710 0 
28 1 0.44 70.00 12.7940 6.2037 0 
29 1 0.49 70.00 21.5247 2.1654 0 
30 1 0.45 70.00 23.3560 2.8039 0 
31 1 0.48 70.00 15.8196 4.6866 0 
32 1 0.48 70.00 5.7105 4.6139 0 
33 1 0.49 70.00 8.5049 5.6274 0 
34 1 0.52 70.00 23.6347 4.9613 0 
35 1 0.50 70.00 22.5079 3.1466 0 
36 1 0.51 70.00 27.1720 1.8585 0 
37 1 0.48 70.00 17.0597 6.7096 0 
38 1 0.48 70.00 4.4506 5.1225 0 
39 1 0.49 70.00 24.8061 5.6351 0 
40 1 0.46 70.00 26.4263 6.2938 0 
41 1 0.43 70.00 7.7466 0.9042 0 
42 1 0.47 70.00 19.3598 4.5118 0 
43 1 0.45 70.00 6.4840 5.2642 0 
44 1 0.48 70.00 5.2154 5.1870 0 
45 1 0.48 70.00 16.6660 4.2803 0 
46 1 0.50 70.00 24.8333 3.9840 0 
47 1 0.45 70.00 1.9375 3.8588 0 
48 1 0.52 70.00 26.4323 2.5486 0 
49 1 0.47 70.00 8.6389 3.9265 0 
50 1 0.47 70.00 26.4069 3.4298 0 
51 1 0.48 70.00 14.8755 5.0570 0 
52 1 0.51 70.00 19.1625 3.6003 0 
53 1 0.47 70.00 2.9289 2.4049 0 
54 1 0.49 70.00 15.5873 0.6717 0 
55 1 0.44 70.00 8.0052 3.4399 0 
56 1 0.47 70.00 13.1480 3.3588 0 
57 1 0.45 70.00 18.6800 4.0042 0 
58 1 0.48 70.00 8.0953 5.3558 0 
59 1 0.46 70.00 26.7819 1.5390 0 
60 1 0.50 70.00 18.3545 3.0951 0 
61 1 0.48 70.00 19.9818 4.5076 0 
62 1 0.51 70.00 5.6778 1.2489 0 
63 1 0.42 70.00 18.6081 1.6135 0 
64 1 0.50 70.00 11.8244 5.4183 0 
65 1 0.46 70.00 7.9706 2.9150 0 
66 1 0.50 70.00 22.1696 6.3914 0 
67 1 0.45 70.00 12.4249 3.7867 0 
68 1 0.47 70.00 1.8809 4.1256 0 
69 1 0.48 70.00 10.2274 5.5151 0 
70 1 0.42 70.00 13.5301 5.6044 0 
71 1 0.42 70.00 6.8222 4.1869 0 
72 1 0.51 70.00 21.8597 6.1520 0 
73 1 0.40 70.00 20.9620 4.0533 0 
74 1 0.43 70.00 24.7157 5.3286 0 
75 1 0.44 70.00 13.2000 2.8221 0 
76 1 0.47 70.00 2.8933 5.7856 0 
77 1 0.43 70.00 15.6891 3.5661 0 
78 1 0.47 70.00 11.5247 0.7919 0 
79 1 0.45 70.00 15.0397 4.9129 0 
80 1 0.44 70.00 19.0921 1.8435 0 
81 1 0.49 70.00 14.8929 6.3249 0 
82 1 0.50 70.00 13.4177 1.3411 0 
83 1 0.46 70.00 19.3276 4.7596 0 
84 1 0.47 70.00 3.2249 0.7111 0 
85 1 0.45 70.00 6.9681 5.9961 0 
86 1 0.46 70.00 12.9289 1.8977 0 
87 1 0.50 70.00 24.4393 5.0484 0 
88 1 0.48 70.00 1.7552 4.5421 0 
89 1 0.46 70.00 18.2982 5.0183 0 
90 1 0.49 70.00 4.4496 0.8360 0 
91 1 0.48 70.00 16.0733 1.3418 0 
92 1 0.47 70.00 5.9751 4.2843 0 
93 1 0.43 70.00 13.6133 1.6693 0 
94 1 0.46 70.00 10.9618 5.8588 0 
95 1 0.48 70.00 25.1132 1.3430 0 
96 1 0.49 70.00 22.0378 2.6807 0 
97 1 0.45 70.00 14.6992 3.4900 0 
98 1 0.48 70.00 17.2342 0.6589 0 
99 1 0.47 70.00 3.8940 3.2237 0 
100 1 0.49 70.00 10.3036 6.5160 0 
101 1 0.49 70.00 27.4955 5.4283 0 
102 1 0.42 70.00 12.2220 6.2432 0 
103 1 0.51 70.00 4.0729 1.0618 0 
104 1 0.48 70.00 21.4837 6.0660 0 
105 1 0.47 70.00 18.7067 4.4442 0 
106 1 0.49 70.00 27.0886 1.1120 0 
107 1 0.46 70.00 20.6441 4.3277 0 
108 1 0.45 70.00 16.6690 3.4871 0 
109 1 0.49 70.00 6.8486 3.7375 0 
110 1 0.45 70.00 1.6113 4.0696 0 
111 1 0.50 70.00 20.2706 6.0261 0 
112 1 0.53 70.00 6.8508 1.3155 0 
113 1 0.42 70.00 17.5034 4.4233 0 
114 1 0.44 70.00 19.2879 3.8500 0 
115 1 0.47 70.00 7.5663 1.8073 0 
116 1 0.47 70.00 11.6208 4.0790 0 
117 1 0.48 70.00 12.2526 3.0050 0 
118 1 0.48 70.00 26.6726 5.3770 0 
119 1 0.43 70.00 8.6563 4.9464 0 
120 1 0.51 70.00 3.4118 4.7969 0 
121 1 0.43 70.00 1.2772 0.7422 0 
122 1 0.51 70.00 17.8451 0.5445 0 
123 1 0.46 70.00 15.8312 6.4252 0 
124 1 0.47 70.00 26.6931 1.2121 0 
125 1 0.53 70.00 11.1623 3.3533 0 
126 1 0.48 70.00 7.8775 4.9424 0 
127 1 0.45 70.00 27.5278 1.6345 0 
128 1 0.45 70.00 3.8490 4.5410 0 
129 1 0.45 70.00 22.6654 6.1702 0 
130 1 0.47 70.00 5.5079 6.2500 0 
131 1 0.52 70.00 8.5299 1.6370 0 
132 1 0.49 70.00 16.9581 4.1482 0 
133 1 0.48 70.00 0.6995 0.6236 0 
134 1 0.44 70.00 11.7751 3.3504 0 
135 1 0.47 70.00 15.3865 5.0001 0 
136 1 0.48 70.00 11.9974 1.6095 0 
137 1 0.48 70.00 3.0145 3.8063 0 
138 1 0.45 70.00 26.0901 6.5683 0 
139 1 0.47 70.00 7.7788 6.7300 0 
140 1 0.46 70.00 9.8494 3.9780 0 
141 1 0.54 70.00 6.2105 4.0510 0 
142 1 0.48 70.00 2.8311 1.2817 0 
143 1 0.47 70.00 21.8366 3.7250 0 
144 1 0.43 70.00 11.5884 2.2510 0 
145 1 0.47 70.00 3.5886 3.7784 0 
146 1 0.47 70.00 26.8601 3.5336 0 
147 1 0.48 70.00 26.6264 0.6503 0 
148 1 0.42 70.00 14.6916 2.8587 0 
149 1 0.44 70.00 23.3015 0.9946 0 
150 1 0.50 70.00 23.6927 5.6081 0 
151 1 0.48 70.00 16.0969 6.6677 0 
152 1 0.48 70.00 20.9874 4.7594 0 
153 1 0.49 70.00 22.5794 4.1816 0 
154 1 0.47 70.00 6.8714 1.5405 0 
155 1 0.46 70.00 9.3921 0.6267 0 
156 1 0.44 70.00 11.7680 5.6788 0 
157 1 0.45 70.00 2.5434 0.5422 0 
158 1 0.45 70.00 23.2777 1.4528 0 
159 1 0.46 70.00 4.5122 5.9652 0 
160 1 0.41 70.00 20.7971 0.6349 0 
161 1 0.45 70.00 18.1925 6.3038 0 
162 1 0.50 70.00 23.5314 1.2995 0 
163 1 0.50 70.00 5.7169 0.5847 0 
164 1 0.46 70.00 14.0290 3.6704 0 
165 1 0.49 70.00 9.3748 2.5449 0 
166 1 0.48 70.00 25.3961 0.5436 0 
167 1 0.41 70.00 17.6427 1.1431 0 
168 1 0.46 70.00 7.3725 2.3787 0 
169 1 0.45 70.00 9.9803 6.5111 0 
170 1 0.42 70.00 10.3895 0.9533 0 
171 1 0.40 70.00 8.7129 4.6912 0 
172 1 0.54 70.00 9.1688 1.1106 0 
173 1 0.44 70.00 10.6039 2.8213 0 
174 1 0.43 70.00 4.5336 2.2211 0 
175 1 0.45 70.00 26.9623 1.6970 0 
176 1 0.41 70.00 23.0958 4.7717 0 
177 1 0.48 70.00 14.9936 1.7531 0 
178 1 0.47 70.00 3.6890 2.4659 0 
179 1 0.41 70.00 27.7964 6.5613 0 
180 1 0.50 70.00 19.5872 4.5318 0 
181 1 0.48 70.00 10.9476 1.2328 0 
182 1 0.45 70.00 17.2133 1.2167 0 
183 1 0.50 70.00 27.0955 5.2736 0 
184 1 0.44 70.00 3.9524 5.8712 0 
185 1 0.41 70.00 24.6444 4.0612 0 
186 1 0.42 70.00 6.9841 5.2630 0 
187 1 0.43 70.00 7.1324 6.4690 0 
188 1 0.45 70.00 12.4779 1.4936 0 
189 1 0.49 70.00 9.6743 2.6103 0 
190 1 0.45 70.00 22.2959 1.6505 0 
191 1 0.45 70.00 26.7322 2.0849 0 
192 1 0.50 70.00 3.1748 4.2280 0 
193 1 0.46 70.00 24.0407 4.1706 0 
194 1 0.47 70.00 1.7220 3.8722 0 
195 1 0.47 70.00 2.4650 6.1463 0 
196 1 0.46 70.00 7.7434 0.6466 0 
197 1 0.46 70.00 4.2365 1.2326 0 
198 1 0.48 70.00 3.0287 2.6300 0 
199 1 0.48 70.00 5.2123 2.7502 0 
200 1 0.48 70.00 23.5224 4.6704 0 
201 1 0.48 70.00 3.7406 1.1103 0 
202 1 0.46 70.00 24.3123 3.9388 0 
203 1 0.48 70.00 14.0376 1.1554 0 
204 1 0.48 70.00 8.9824 2.2454 0 
205 1 0.48 70.00 8.5948 6.1617 0 
206 1 0.48 70.00 26.0198 2.6213 0 
207 1 0.36 70.00 10.9302 3.3364 0 
208 1 0.47 70.00 12.4211 5.0458 0 
209 1 0.45 70.00 12.4010 0.5367 0 
210 1 0.41 70.00 19.5332 6.0845 0 
211 1 0.41 70.00 15.2875 2.5464 0 
212 1 0.44 70.00 14.4770 1.1064 0 
213 1 0.49 70.00 0.7367 3.7296 0 
214 1 0.45 70.00 10.6837 1.8847 0 
215 1 0.47 70.00 10.3874 1.3660 0 
216 1 0.48 70.00 24.2929 4.3269 0 
217 1 0.40 70.00 23.3785 2.0459 0 
218 1 0.51 70.00 21.5351 4.5107 0 
219 1 0.44 70.00 18.2571 5.7727 0 
220 1 0.47 70.00 20.6355 0.5040 0 
221 1 0.44 70.00 20.0592 4.1608 0 
222 1 0.50 70.00 1.7960 5.4004 0 
223 1 0.50 70.00 13.1392 5.8345 0 
224 1 0.42 70.00 10.2874 1.1445 0 
225 1 0.51 70.00 15.6576 1.6504 0 
226 1 0.50 70.00 25.5937 4.9090 0 
227 1 0.48 70.00 23.6747 0.9720 0 
228 1 0.48 70.00 26.0075 4.9248 0 
229 1 0.48 70.00 21.8647 5.5451 0 
230 1 0.47 70.00 13.5701 5.2464 0 
231 1 0.47 70.00 3.0809 4.9328 0 
232 1 0.52 70.00 23.1584 1.6468 0 
233 1 0.46 70.00 17.9010 3.4081 0 
234 1 0.46 70.00 24.3985 1.3502 0 
235 1 0.50 70.00 24.5819 3.1757 0 
236 1 0.53 70.00 7.2076 0.7613 0 
237 1 0.45 70.00 19.9182 0.7878 0 
238 1 0.37 70.00 22.3207 2.6831 0 
239 1 0.44 70.00 22.6506 1.7633 0 
240 1 0.48 70.00 19.8492 2.7956 0 
241 1 0.52 70.00 20.0805 6.6337 0 
242 1 0.49 70.00 5.0876 3.6857 0 
243 1 0.39 70.00 6.7824 3.3506 0 
244 1 0.47 70.00 17.5833 2.7411 0 
245 1 0.46 70.00 16.4890 2.7135 0 
246 1 0.47 70.00 18.7134 6.3295 0 
247 1 0.44 70.00 24.7649 2.3725 0 
248 1 0.43 70.00 0.9427 3.1973 0 
249 1 0.53 70.00 17.5230 3.0373 0 
250 1 0.46 70.00 15.5085 2.1025 0 
251 1 0.43 70.00 23.5761 6.1143 0 
252 1 0.50 70.00 6.8924 2.1220 0 
253 1 0.44 70.00 6.2903 1.1728 0 
254 1 0.48 70.00 21.2326 4.0986 0 
255 1 0.49 70.00 24.1778 3.3803 0 
256 1 0.39 70.00 17.6171 2.1826 0 
257 1 0.43 70.00 15.7563 4.3912 0 
258 1 0.44 70.00 14.3739 5.2102 0 
259 1 0.48 70.00 25.5876 2.5098 0 
260 1 0.49 70.00 11.1269 3.7751 0 
261 1 0.47 70.00 21.2880 3.5601 0 
262 1 0.49 70.00 13.4740 1.0059 0 
263 1 0.51 70.00 23.6478 5.9016 0 
264 1 0.49 70.00 25.4282 1.3964 0 
265 1 0.46 70.00 1.1848 5.4395 0 
266 1 0.51 70.00 5.1107 4.8426 0 
267 1 0.49 70.00 11.6034 6.0096 0 
268 1 0.47 70.00 19.3927 3.0269 0 
269 1 0.42 70.00 15.4267 1.6303 0 
270 1 0.49 70.00 6.4190 6.3966 0 
271 1 0.43 70.00 9.0115 3.2387 0 
272 1 0.53 70.00 11.8824 6.3238 0 
273 1 0.46 70.00 24.9686 6.4825 0 
274 1 0.41 70.00 17.3640 1.0151 0 
275 1 0.48 70.00 19.4472 3.9811 0 
276 1 0.47 70.00 17.5429 5.3645 0 
277 1 0.49 70.00 16.8772 5.6103 0 
278 1 0.51 70.00 16.1895 3.5567 0 
279 1 0.51 70.00 26.1901 1.3596 0 
280 1 0.46 70.00 23.9983 4.8935 0 
281 1 0.43 70.00 22.7599 0.6821 0 
282 1 0.50 70.00 19.6715 4.8796 0 
283 1 0.47 70.00 14.9989 2.5166 0 
284 1 0.41 70.00 26.5209 1.0038 0 
285 1 0.49 70.00 5.0582 5.7648 0 
286 1 0.50 70.00 3.9023 3.8508 0 
287 1 0.42 70.00 6.5476 3.9321 0 
288 1 0.45 70.00 24.2482 5.8231 0 
289 1 0.47 70.00 20.8991 1.0990 0 
290 1 0.46 70.00 7.8405 5.9577 0 
291 1 0.47 70.00 20.5837 0.9435 0 
292 1 0.46 70.00 3.3546 1.4103 0 
293 1 0.47 70.00 2.9428 5.5426 0 
294 1 0.46 70.00 25.7038 6.7891 0 
295 1 0.48 70.00 14.8452 3.7966 0 
296 1 0.46 70.00 21.7719 2.8949 0 
297 1 0.51 70.00 9.0695 6.3221 0 
298 1 0.54 70.00 22.2834 5.4039 0 
299 1 0.50 70.00 25.8902 5.2065 0 
300 1 0.48 70.00 3.0538 2.1374 0 
301 1 0.47 70.00 6.2793 4.8881 0 
302 1 0.48 70.00 10.9706 6.5670 0 
303 1 0.53 70.00 1.6361 2.4291 0 
304 1 0.49 70.00 10.3926 3.7691 0 
305 1 0.42 70.00 19.0636 4.4193 0 
306 1 0.49 70.00 3.6718 0.7140 0 
307 1 0.48 70.00 1.2707 6.1948 0 
308 1 0.41 70.00 18.0252 1.4108 0 
309 1 0.46 70.00 23.1637 3.7435 0 
310 1 0.52 70.00 17.2315 2.7022 0 
311 1 0.47 70.00 22.5252 6.3854 0 
312 1 0.47 70.00 18.4573 4.3037 0 
313 1 0.48 70.00 23.9230 6.6077 0 
314 1 0.49 70.00 15.9287 3.1081 0 
315 1 0.49 70.00 16.4006 5.9432 0 
316 1 0.45 70.00 14.9672 5.6358 0 
317 1 0.54 70.00 20.4297 4.8968 0 
318 1 0.44 70.00 0.9352 3.6204 0 
319 1 0.50 70.00 17.6856 5.8047 0 
320 1 0.49 70.00 2.2973 1.2438 0 
321 1 0.45 70.00 27.2356 6.5817 0 
322 1 0.48 70.00 20.2968 0.6786 0 
323 1 0.53 70.00 13.4018 3.0557 0 
324 1 0.50 70.00 11.1705 1.9256 0 
325 1 0.40 70.00 16.0671 4.0551 0 
326 1 0.50 70.00 22.0298 3.3052 0 
327 1 0.50 70.00 5.4865 2.4872 0 
328 1 0.46 70.00 12.5737 1.0632 0 
329 1 0.48 70.00 10.6289 0.9105 0 
330 1 0.50 70.00 7.6692 2.1740 0 
331 1 0.47 70.00 23.4238 3.5418 0 
332 1 0.47 70.00 16.0701 1.0336 0 
333 1 0.46 70.00 13.4825 2.3938 0 
334 1 0.50 70.00 18.7491 4.7277 0 
335 1 0.42 70.00 16.0564 5.8896 0 
336 1 0.51 70.00 23.9049 1.5836 0 
337 1 0.49 70.00 14.5459 6.5686 0 
338 1 0.49 70.00 26.9500 0.6516 0 
339 1 0.49 70.00 1.1059 2.7598 0 
340 1 0.48 70.00 27.3237 5.5734 0 
341 1 0.46 70.00 22.3829 3.8817 0 
342 1 0.47 70.00 8.2721 3.8225 0 
343 1 0.45 70.00 8.4100 1.1778 0 
344 1 0.45 70.00 14.2081 6.0304 0 
345 1 0.50 70.00 21.7763 1.9542 0 
346 1 0.51 70.00 22.3151 2.3954 0 
347 1 0.50 70.00 1.7459 1.2730 0 
348 1 0.43 70.00 27.4940 5.8119 0 
349 1 0.52 70.00 15.8535 4.0347 0 
350 1 0.48 70.00 24.2928 6.6310 0 
351 1 0.48 70.00 21.5079 6.7760 0 
352 1 0.48 70.00 8.7220 1.2206 0 
353 1 0.44 70.00 10.9216 4.0237 0 
354 1 0.51 70.00 0.9121 2.4726 0 
355 1 0.47 70.00 21.1752 3.3562 0 
356 1 0.51 70.00 4.2094 6.3800 0 
357 1 0.47 70.00 5.9088 1.1628 0 
358 1 0.47 70.00 25.0383 6.0598 0 
359 1 0.49 70.00 9.9779 6.3099 0 
360 1 0.45 70.00 16.4833 4.4198 0 
361 1 0.48 70.00 25.5134 2.9713 0 
362 1 0.45 70.00 17.4525 5.8423 0 
363 1 0.48 70.00 3.7525 5.6970 0 
364 1 0.46 70.00 13.7584 6.7681 0 
365 1 0.48 70.00 11.4972 5.0313 0 
366 1 0.50 70.00 18.8809 3.9630 0 
367 1 0.47 70.00 18.6895 1.4270 0 
368 1 0.49 70.00 2.8916 4.3506 0 
369 1 0.46 70.00 19.1657 1.1512 0 
370 1 0.49 70.00 6.7463 2.4132 0 
371 1 0.45 70.00 27.4995 3.8561 0 
372 1 0.46 70.00 13.6776 4.8384 0 
373 1 0.46 70.00 17.1086 5.5153 0 
374 1 0.50 70.00 8.6769 1.4537 0 
375 1 0.47 70.00 18.5407 1.9660 0 
376 1 0.47 70.00 7.5218 5.2584 0 
377 1 0.50 70.00 25.5355 5.4245 0 
378 1 0.44 70.00 25.7675 3.9152 0 
379 1 0.47 70.00 22.2581 0.6251 0 
380 1 0.42 70.00 24.9545 1.9338 0 
381 1 0.44 70.00 1.9736 6.6717 0 
382 1 0.48 70.00 25.4924 4.5314 0 
383 1 0.49 70.00 3.8957 2.2870 0 
384 1 0.51 70.00 26.2247 3.0820 0 
385 1 0.48 70.00 14.7683 0.5409 0 
386 1 0.45 70.00 24.4698 3.3446 0 
387 1 0.47 70.00 24.1795 2.4836 0 
388 1 0.43 70.00 2.6351 3.7426 0 
389 1 0.48 70.00 17.3200 4.3043 0 
390 1 0.43 70.00 5.9844 4.6779 0 
391 1 0.46 70.00 14.0364 0.6545 0 
392 1 0.46 70.00 23.0190 2.5799 0 
393 1 0.47 70.00 3.2029 5.2379 0 
394 1 0.48 70.00 22.0003 0.5133 0 
395 1 0.50 70.00 26.8352 2.7280 0 
396 1 0.44 70.00 16.0005 0.6073 0 
397 1 0.46 70.00 15.6320 0.9319 0 
398 1 0.45 70.00 21.5764 0.9962 0 
399 1 0.50 70.00 4.9226 3.5239 0 
400 1 0.52 70.00 13.5804 4.0348 0 
401 1 0.45 70.00 11.7851 3.1481 0 
402 1 0.52 70.00 3.1727 1.9721 0 
403 1 0.39 70.00 14.0072 3.1201 0 
404 1 0.48 70.00 22.7431 3.9538 0 
405 1 0.46 70.00 23.2992 4.4734 0 
406 1 0.48 70.00 11.4429 4.5602 0 
407 1 0.44 70.00 13.9374 5.4242 0 
408 1 0.50 70.00 17.8349 5.4079 0 
409 1 0.47 70.00 17.5178 6.4810 0 
410 1 0.48 70.00 2.2014 4.9236 0 
411 1 0.43 70.00 27.0634 5.8648 0 
412 1 0.43 70.00 9.3739 2.0322 0 
413 1 0.43 70.00 15.2579 6.3784 0 
414 1 0.47 70.00 22.8757 0.8570 0 
415 1 0.44 70.00 25.1084 5.8311 0 
416 1 0.51 70.00 3.2553 5.7298 0 
417 1 0.46 70.00 19.9089 1.6021 0 
418 1 0.49 70.00 14.8891 6.6850 0 
419 1 0.47 70.00 8.1586 0.5593 0 
420 1 0.49 70.00 8.5913 4.5157 0 
421 1 0.51 70.00 14.5762 1.5354 0 
422 1 0.48 70.00 26.3519 5.5175 0 
423 1 0.44 70.00 9.5192 1.0517 0 
424 1 0.48 70.00 15.5406 3.9949 0 
425 1 0.52 70.00 2.1489 5.7695 0 
426 1 0.48 70.00 5.5556 1.4613 0 
427 1 0.51 70.00 1.4671 5.4442 0 
428 1 0.44 70.00 16.7652 2.8332 0 
429 1 0.46 70.00 6.4900 5.8350 0 
430 1 0.46 70.00 11.1555 2.2659 0 
431 1 0.43 70.00 11.4288 6.7378 0 
432 1 0.48 70.00 22.2887 2.1567 0 
433 1 0.44 70.00 20.6052 1.9762 0 
434 1 0.41 70.00 20.3795 4.3766 0 
435 1 0.45 70.00 4.6726 4.9860 0 
436 1 0.45 70.00 24.2130 0.7952 0 
437 1 0.50 70.00 22.2380 1.2715 0 
438 1 0.43 70.00 18.6877 5.4861 0 
439 1 0.46 70.00 23.8076 3.2089 0 
440 1 0.47 70.00 0.9492 1.6160 0 
441 1 0.52 70.00 22.8431 3.4212 0 
442 1 0.42 70.00 13.1024 5.2964 0 
443 1 0.48 70.00 13.8677 4.7210 0 
444 1 0.44 70.00 20.7385 2.1382 0 
445 1 0.49 70.00 5.9500 1.4613 0 
446 1 0.47 70.00 24.2695 2.2980 0 
447 1 0.48 70.00 12.5375 2.5840 0 
448 1 0.43 70.00 6.8950 3.0262 0 
449 1 0.48 70.00 21.3843 2.8164 0 
450 1 0.45 70.00 5.6838 2.2187 0 
451 1 0.49 70.00 6.4884 4.5619 0 
452 1 0.44 70.00 3.3831 6.4804 0 
453 1 0.46 70.00 21.1190 6.5195 0 
454 1 0.42 70.00 27.1814 4.2436 0 
455 1 0.45 70.00 5.5007 6.6251 0 
456 1 0.48 70.00 19.5819 3.8287 0 
457 1 0.47 70.00 13.2161 3.8140 0 
458 1 0.44 70.00 17.7296 1.7554 0 
459 1 0.48 70.00 14.2320 3.2487 0 
460 1 0.52 70.00 27.3288 6.1975 0 
461 1 0.54 70.00 5.3623 5.9989 0 
462 1 0.50 70.00 19.8217 1.9326 0 
463 1 0.49 70.00 5.4772 0.8698 0 
464 1 0.45 70.00 6.6089 2.0897 0 
465 1 0.53 70.00 6.4849 1.3895 0 
466 1 0.49 70.00 11.6429 3.7337 0 
467 1 0.43 70.00 2.3796 5.6102 0 
468 1 0.48 70.00 3.3881 2.5681 0 
469 1 0.42 70.00 11.1120 4.1146 0 
470 1 0.51 70.00 14.8111 1.9541 0 
471 1 0.46 70.00 22.7998 5.1577 0 
472 1 0.46 70.00 0.9384 1.2954 0 
473 1 0.44 70.00 14.1890 1.7700 0 
474 1 0.46 70.00 6.0802 3.5860 0 
475 1 0.49 70.00 27.0394 6.7176 0 
476 1 0.47 70.00 22.3406 4.4601 0 
477 1 0.39 70.00 23.2953 3.2544 0 
478 1 0.48 70.00 2.1285 2.6475 0 
479 1 0.43 70.00 21.3092 5.8590 0 
480 1 0.45 70.00 12.8337 3.7639 0 
481 1 0.44 70.00 10.1734 2.6352 0 
482 1 0.55 70.00 19.2504 1.3730 0 
483 1 0.48 70.00 25.6205 1.1282 0 
484 1 0.51 70.00 16.2187 0.5403 0 
485 1 0.45 70.00 18.7325 5.7429 0 
486 1 0.46 70.00 6.1733 5.6533 0 
487 1 0.45 70.00 7.6455 3.9425 0 
488 1 0.48 70.00 24.4641 2.7042 0 
489 1 0.44 70.00 5.7042 4.9698 0 
490 1 0.49 70.00 9.7329 3.2117 0 
491 1 0.51 70.00 17.0736 1.6987 0 
492 1 0.51 70.00 10.1262 4.9283 0 
493 1 0.45 70.00 3.7003 4.0649 0 
494 1 0.44 70.00 2.3801 6.6052 0 
495 1 0.46 70.00 21.3776 2.0288 0 
496 1 0.48 70.00 24.6410 5.8907 0 
497 1 0.50 70.00 0.5201 1.8135 0 
498 1 0.46 70.00 8.0731 1.2928 0 
499 1 0.43 70.00 24.9602 4.8428 0 
500 1 0.47 70.00 19.7725 5.0637 0 
501 1 0.48 70.00 24.4957 2.0418 0 
502 1 0.47 70.00 2.4779 1.7630 0 
503 1 0.49 70.00 7.3639 1.2397 0 
504 1 0.47 70.00 7.4957 5.7647 0 
505 1 0.47 70.00 1.0999 6.6246 0 
506 1 0.55 70.00 17.7095 6.0209 0 
507 1 0.45 70.00 22.8387 5.7251 0 
508 1 0.50 70.00 18.7883 0.7976 0 
509 1 0.47 70.00 0.8227 2.8322 0 
510 1 0.43 70.00 5.0794 1.8534 0 
511 1 0.47 70.00 19.5159 1.4791 0 
512 1 0.50 70.00 19.7798 5.3932 0 
513 1 0.44 70.00 4.3634 5.6901 0 
514 1 0.45 70.00 16.0021 4.5764 0 
515 1 0.47 70.00 10.3987 1.8544 0 
516 1 0.51 70.00 17.9285 4.3849 0 
517 1 0.46 70.00 18.8937 6.5002 0 
518 1 0.48 70.00 14.7557 1.2195 0 
519 1 0.46 70.00 15.4745 6.2442 0 
520 1 0.50 70.00 20.5864 5.0982 0 
521 1 0.51 70.00 17.6064 0.9446 0 
522 1 0.44 70.00 3.3247 3.3637 0 
523 1 0.47 70.00 22.0758 4.1805 0 
524 1 0.50 70.00 20.3016 5.0724 0 
525 1 0.47 70.00 0.8997 6.4494 0 
526 1 0.47 70.00 16.3774 5.6845 0 
527 1 0.43 70.00 19.6592 6.7843 0 
528 1 0.50 70.00 9.9597 5.6413 0 
529 1 0.46 70.00 5.7485 1.9892 0 
530 1 0.52 70.00 19.2423 4.9606 0 
531 1 0.45 70.00 24.2643 2.8339 0 
532 1 0.45 70.00 19.7315 2.3345 0 
533 1 0.40 70.00 27.2980 5.9350 0 
534 1 0.43 70.00 18.8343 6.7425 0 
535 1 0.47 70.00 1.1935 0.5076 0 
536 1 0.44 70.00 14.4165 1.3787 0 
537 1 0.44 70.00 6.4983 2.4940 0 
538 1 0.45 70.00 7.2498 4.2727 0 
539 1 0.47 70.00 12.9712 2.6459 0 
540 1 0.48 70.00 26.3267 2.8347 0 
541 1 0.46 70.00 8.9094 4.3746 0 
542 1 0.51 70.00 25.8463 6.5629 0 
543 1 0.48 70.00 3.0422 0.6279 0 
544 1 0.46 70.00 7.0727 5.4837 0 
545 1 0.50 70.00 16.3754 4.8047 0 
546 1 0.49 70.00 3.8978 6.6569 0 
547 1 0.40 70.00 26.1211 5.6815 0 
548 1 0.47 70.00 12.2970 4.2755 0 
549 1 0.46 70.00 9.2521 6.4744 0 
550 1 0.44 70.00 17.5562 5.0408 0 
551 1 0.48 70.00 27.4055 0.6248 0 
552 1 0.54 70.00 3.4357 6.2404 0 
553 1 0.46 70.00 23.3540 4.1372 0 
554 1 0.46 70.00 20.8540 3.4154 0 
555 1 0.52 70.00 3.5198 1.7833 0 
556 1 0.46 70.00 0.5208 4.8470 0 
557 1 0.53 70.00 19.7742 4.2741 0 
558 1 0.43 70.00 10.9669 1.7162 0 
559 1 0.52 70.00 1.8397 6.2640 0 
560 1 0.42 70.00 26.6918 5.8260 0 
561 1 0.46 70.00 9.3214 1.8156 0 
562 1 0.44 70.00 25.6096 3.7771 0 
563 1 0.46 70.00 16.7264 6.0634 0 
564 1 0.50 70.00 14.3459 3.6372 0 
565 1 0.49 70.00 20.4227 5.2978 0 
566 1 0.49 70.00 4.5272 4.1186 0 
567 1 0.44 70.00 4.9757 4.3218 0 
568 1 0.43 70.00 13.7355 2.1833 0 
569 1 0.45 70.00 10.8613 2.6339 0 
570 1 0.48 70.00 13.0875 5.5724 0 
571 1 0.52 70.00 17.0373 4.6480 0 
572 1 0.47 70.00 18.2462 6.5180 0 
573 1 0.46 70.00 4.4849 1.1714 0 
574 1 0.41 70.00 5.3268 4.8890 0 
575 1 0.50 70.00 10.8819 6.3500 0 
576 1 0.48 70.00 17.7866 4.8882 0 
577 1 0.45 70.00 16.6247 3.1951 0 
578 1 0.50 70.00 6.2831 0.6560 0 
579 1 0.46 70.00 6.5630 6.0337 0 
580 1 0.47 70.00 22.0423 2.0510 0 
581 1 0.49 70.00 1.9275 1.5709 0 
582 1 0.43 70.00 5.6239 1.6608 0 
583 1 0.48 70.00 12.9495 1.2260 0 
584 1 0.52 70.00 7.5103 6.1557 0 
585 1 0.48 70.00 4.4981 6.3291 0 
586 1 0.48 70.00 17.8071 1.4303 0 
587 1 0.49 70.00 9.8404 5.3269 0 
588 1 0.45 70.00 2.5681 0.9729 0 
589 1 0.40 70.00 18.3834 4.5113 0 
590 1 0.48 70.00 9.0049 2.7158 0 
591 1 0.41 70.00 15.2031 3.7104 0 
592 1 0.44 70.00 25.7236 4.5403 0 
593 1 0.46 70.00 18.9418 0.5733 0 
594 1 0.50 70.00 16.8527 4.7636 0 
595 1 0.49 70.00 8.7274 2.1556 0 
596 1 0.46 70.00 27.6971 5.2138 0 
597 1 0.48 70.00 15.3832 1.4083 0 
598 1 0.45 70.00 3.5210 4.3260 0 
599 1 0.52 70.00 21.0001 0.6764 0 
600 1 0.49 70.00 18.0720 2.9735 0 
601 1 0.50 70.00 25.1844 0.7303 0 
602 1 0.48 70.00 17.6120 3.4200 0 
603 1 0.48 70.00 12.8706 3.2656 0 
604 1 0.47 70.00 10.1294 3.1761 0 
605 1 0.50 70.00 16.2926 3.1064 0 
606 1 0.47 70.00 18.2954 1.2794 0 
607 1 0.47 70.00 7.2122 5.7647 0 
608 1 0.47 70.00 6.4504 2.2482 0 
609 1 0.45 70.00 5.3998 5.3782 0 
610 1 0.48 70.00 2.5811 4.4659 0 
611 1 0.45 70.00 11.3032 6.0088 0 
612 1 0.47 70.00 11.4383 5.2584 0 
613 1 0.53 70.00 20.4100 6.3167 0 
614 1 0.46 70.00 14.1664 2.9815 0 
615 1 0.49 70.00 5.2958 2.2993 0 
616 1 0.45 70.00 12.2427 3.3274 0 
617 1 0.47 70.00 18.8611 1.1604 0 
618 1 0.47 70.00 27.3704 2.3120 0 
619 1 0.46 70.00 1.4491 1.7677 0 
620 1 0.43 70.00 2.6414 6.6176 0 
621 1 0.48 70.00 15.2104 0.5555 0 
622 1 0.49 70.00 21.4355 0.5997 0 
623 1 0.46 70.00 7.5882 2.5534 0 
624 1 0.43 70.00 0.7381 2.6007 0 
625 1 0.43 70.00 13.5591 5.9139 0 
626 1 0.49 70.00 8.5950 4.3130 0 
627 1 0.45 70.00 2.3509 4.0403 0 
628 1 0.44 70.00 11.3897 1.8122 0 
629 1 0.44 70.00 15.0063 5.3817 0 
630 1 0.45 70.00 1.3740 1.1700 0 
631 1 0.50 70.00 1.2741 5.8219 0 
632 1 0.44 70.00 27.5828 1.3211 0 
633 1 0.41 70.00 13.7472 1.8964 0 
634 1 0.43 70.00 25.3434 0.8580 0 
635 1 0.49 70.00 6.2234 1.9386 0 
636 1 0.46 70.00 26.6969 3.2592 0 
637 1 0.43 70.00 16.1276 5.3079 0 
638 1 0.40 70.00 17.9282 3.6559 0 
639 1 0.47 70.00 25.0566 3.6095 0 
640 1 0.43 70.00 26.6535 4.1887 0 
641 1 0.51 70.00 8.2608 2.9719 0 
642 1 0.48 70.00 18.1801 0.5977 0 
643 1 0.45 70.00 16.4097 3.6818 0 
644 1 0.50 70.00 2.4932 5.2312 0 
645 1 0.48 70.00 6.9768 2.4524 0 
646 1 0.50 70.00 25.6065 4.0812 0 
647 1 0.50 70.00 27.7717 5.8077 0 
648 1 0.48 70.00 10.0222 3.4889 0 
649 1 0.46 70.00 15.9297 3.6713 0 
650 1 0.44 70.00 12.9760 6.2917 0 
651 1 0.48 70.00 8.8932 4.1489 0 
652 1 0.47 70.00 23.9645 3.8034 0 
653 1 0.48 70.00 27.7033 3.9164 0 
654 1 0.42 70.00 5.4426 3.7751 0 
655 1 0.42 70.00 19.6609 3.4975 0 
656 1 0.46 70.00 3.4280 1.1929 0 
657 1 0.48 70.00 17.2067 4.9416 0 
658 1 0.47 70.00 25.0005 2.5304 0 
659 1 0.46 70.00 5.9523 3.2921 0 
660 1 0.48 70.00 3.0332 1.2387 0 
661 1 0.48 70.00 25.9807 3.3443 0 
662 1 0.48 70.00 14.1902 0.9825 0 
663 1 0.48 70.00 15.2884 2.8128 0 
664 1 0.39 70.00 1.0664 2.2936 0 
665 1 0.47 70.00 9.4198 3.0819 0 
666 1 0.48 70.00 5.2226 1.5707 0 
667 1 0.44 70.00 15.9829 5.1631 0 
668 1 0.46 70.00 17.3832 2.2845 0 
669 1 0.48 70.00 16.1294 2.9809 0 
670 1 0.49 70.00 12.3891 4.5580 0 
671 1 0.48 70.00 17.5918 1.9181 0 
672 1 0.43 70.00 7.8070 3.2550 0 
673 1 0.45 70.00 12.5381 4.1323 0 
674 1 0.54 70.00 8.6626 6.6339 0 
675 1 0.47 70.00 21.6637 6.3192 0 
676 1 0.47 70.00 8.7349 3.1570 0 
677 1 0.53 70.00 24.2761 2.0864 0 
678 1 0.46 70.00 19.8195 5.7061 0 
679 1 0.46 70.00 0.9111 0.8102 0 
680 1 0.48 70.00 2.6901 3.1107 0 
681 1 0.44 70.00 26.7098 2.9449 0 
682 1 0.43 70.00 1.1429 4.8818 0 
683 1 0.52 70.00 11.5636 2.0143 0 
684 1 0.47 70.00 3.7152 4.7515 0 
685 1 0.51 70.00 15.0717 3.4125 0 
686 1 0.48 70.00 16.7099 3.9375 0 
687 1 0.49 70.00 23.5806 2.2290 0 
688 1 0.47 70.00 26.4139 0.6606 0 
689 1 0.46 70.00 2.2780 1.9361 0 
690 1 0.47 70.00 23.0882 4.1057 0 
691 1 0.48 70.00 11.3597 2.1187 0 
692 1 0.51 70.00 24.7106 0.7274 0 
693 1 0.47 70.00 0.9504 5.1945 0 
694 1 0.50 70.00 18.6557 3.6045 0 
695 1 0.48 70.00 27.5398 2.7128 0 
696 1 0.44 70.00 21.8767 4.5474 0 
697 1 0.46 70.00 14.1714 2.4425 0 
698 1 0.51 70.00 16.9100 6.3246 0 
699 1 0.44 70.00 18.6430 0.6346 0 
700 1 0.49 70.00 9.7357 6.0262 0 
701 1 0.51 70.00 23.0834 4.4195 0 
702 1 0.44 70.00 25.8251 4.7182 0 
703 1 0.44 70.00 19.1470 3.0225 0 
704 1 0.45 70.00 12.0836 6.6827 0 
705 1 0.46 70.00 26.4330 2.0234 0 
706 1 0.42 70.00 26.7772 4.7903 0 
707 1 0.45 70.00 1.6916 3.2916 0 
708 1 0.47 70.00 5.9071 2.1906 0 
709 1 0.49 70.00 23.0851 0.5170 0 
710 1 0.49 70.00 12.2954 2.6421 0 
711 1 0.46 70.00 3.7936 2.9708 0 
712 1 0.43 70.00 11.7295 1.5644 0 
713 1 0.46 70.00 23.5989 3.8454 0 
714 1 0.53 70.00 24.2396 6.3104 0 
715 1 0.47 70.00 5.6127 5.3749 0 
716 1 0.45 70.00 12.8247 4.8686 0 
717 1 0.46 70.00 18.4043 6.2843 0 
718 1 0.48 70.00 13.9304 3.8535 0 
719 1 0.43 70.00 17.0741 2.9965 0 
720 1 0.49 70.00 18.7959 3.2157 0 
721 1 0.49 70.00 19.0866 4.0883 0 
722 1 0.49 70.00 9.2408 3.8851 0 
723 1 0.46 70.00 23.0029 1.1272 0 
724 1 0.46 70.00 21.2698 2.2664 0 
725 1 0.43 70.00 13.6191 6.5794 0 
726 1 0.50 70.00 24.9261 6.7130 0 
727 1 0.45 70.00 27.5918 3.4245 0 
728 1 0.44 70.00 1.2210 2.4526 0 
729 1 0.47 70.00 6.6955 4.9188 0 
730 1 0.50 70.00 23.8765 1.1215 0 
731 1 0.51 70.00 11.7929 2.8656 0 
732 1 0.48 70.00 4.7281 4.4683 0 
733 1 0.44 70.00 6.6419 2.8072 0 
734 1 0.49 70.00 2.1097 4.5497 0 
735 1 0.51 70.00 0.5463 5.5173 0 
736 1 0.47 70.00 21.6752 5.0500 0 
737 1 0.50 70.00 13.4865 3.2636 0 
738 1 0.47 70.00 24.5693 2.4692 0 
739 1 0.47 70.00 15.9973 4.3269 0 
740 1 0.49 70.00 16.7803 6.5811 0 
741 1 0.45 70.00 22.4586 2.8580 0 
742 1 0.48 70.00 3.7489 3.5810 0 
743 1 0.47 70.00 6.1050 6.1951 0 
744 1 0.51 70.00 1.7272 0.7296 0 
745 1 0.46 70.00 9.1321 6.7625 0 
746 1 0.40 70.00 9.7525 5.5540 0 
747 1 0.45 70.00 9.4855 4.3077 0 
748 1 0.51 70.00 7.7930 2.0024 0 
749 1 0.44 70.00 16.0949 5.6544 0 
750 1 0.49 70.00 12.6417 4.5231 0 
751 1 0.41 70.00 24.5152 1.0715 0 
752 1 0.42 70.00 26.6834 6.5089 0 
753 1 0.54 70.00 6.5937 3.0195 0 
754 1 0.51 70.00 25.0360 1.6376 0 
755 1 0.44 70.00 5.8334 6.2324 0 
756 1 0.46 70.00 23.8056 3.4590 0 
757 1 0.44 70.00 27.5497 4.9624 0 
758 1 0.40 70.00 14.9598 0.7323 0 
759 1 0.48 70.00 16.1568 2.6075 0 
760 1 0.46 70.00 6.4168 6.6088 0 
761 1 0.47 70.00 14.4002 6.3817 0 
762 1 0.45 70.00 14.6012 4.2740 0 
763 1 0.49 70.00 17.6298 4.2058 0 
764 1 0.49 70.00 10.7638 4.6924 0 
765 1 0.52 70.00 26.9184 4.9661 0 
766 1 0.52 70.00 3.5756 5.9459 0 
767 1 0.47 70.00 26.4853 5.2745 0 
768 1 0.45 70.00 5.0821 4.0535 0 
769 1 0.52 70.00 13.6653 4.5782 0 
770 1 0.47 70.00 13.8387 1.0579 0 
771 1 0.54 70.00 24.5185 2.2686 0 
772 1 0.42 70.00 18.9539 1.4985 0 
773 1 0.48 70.00 12.7363 2.4597 0 
774 1 0.47 70.00 23.4488 5.8650 0 
775 1 0.47 70.00 26.5955 4.5474 0 
776 1 0.49 70.00 19.2396 5.3839 0 
777 1 0.51 70.00 2.4317 2.6807 0 
778 1 0.44 70.00 11.9364 3.6936 0 
779 1 0.44 70.00 22.3063 3.4785 0 
780 1 0.48 70.00 6.6315 1.1813 0 
781 1 0.51 70.00 18.5036 4.9983 0 
782 1 0.50 70.00 4.1884 5.0046 0 
783 1 0.49 70.00 20.4158 3.6423 0 
784 1 0.46 70.00 14.4918 2.5600 0 
785 1 0.47 70.00 8.3683 2.6557 0 
786 1 0.46 70.00 8.1247 6.2419 0 
787 1 0.52 70.00 19.3621 5.9143 0 
788 1 0.47 70.00 10.7026 6.1569 0 
789 1 0.49 70.00 24.2325 1.0319 0 
790 1 0.44 70.00 19.7614 4.6911 0 
791 1 0.45 70.00 26.3058 2.3456 0 
792 1 0.44 70.00 3.8794 4.9511 0 
793 1 0.44 70.00 21.5796 1.6319 0 
794 1 0.43 70.00 3.4883 3.5228 0 
795 1 0.47 70.00 10.2379 2.9679 0 
796 1 0.42 70.00 12.8600 0.7243 0 
797 1 0.49 70.00 20.9414 5.0695 0 
798 1 0.44 70.00 19.0816 5.9387 0 
799 1 0.47 70.00 14.2875 4.9685 0 
800 1 0.42 70.00 16.3642 1.2086 0 
801 1 0.43 70.00 9.8739 1.8671 0 
802 1 0.50 70.00 21.1536 3.7286 0 
803 1 0.46 70.00 5.7280 6.7719 0 
804 1 0.47 70.00 23.2433 5.8771 0 
805 1 0.46 70.00 21.2590 1.6019 0 
806 1 0.46 70.00 2.7584 4.5814 0 
807 1 0.45 70.00 7.5097 0.9567 0 
808 1 0.46 70.00 15.9873 1.7854 0 
809 1 0.49 70.00 18.1580 1.7319 0 
810 1 0.45 70.00 22.3737 1.8976 0 
811 1 0.48 70.00 8.3951 6.5866 0 
812 1 0.45 70.00 21.7774 1.4670 0 
813 1 0.42 70.00 10.7805 3.5063 0 
814 1 0.49 70.00 4.2855 0.5955 0 
815 1 0.40 70.00 7.4463 2.9821 0 
816 1 0.51 70.00 17.4721 0.6224 0 
817 1 0.52 70.00 16.1309 3.2893 0 
818 1 0.47 70.00 2.5448 4.8253 0 
819 1 0.45 70.00 17.3168 5.5473 0 
820 1 0.47 70.00 19.4116 1.0997 0 
821 1 0.46 70.00 17.0482 5.1620 0 
822 1 0.46 70.00 4.2324 3.1752 0 
823 1 0.51 70.00 22.0489 0.9327 0 
824 1 0.45 70.00 21.3660 4.8525 0 
825 1 0.46 70.00 9.0325 0.8106 0 
826 1 0.48 70.00 27.1065 2.1643 0 
827 1 0.51 70.00 12.7308 1.3645 0 
828 1 0.48 70.00 3.8168 2.6825 0 
829 1 0.47 70.00 10.4244 3.2414 0 
830 1 0.45 70.00 19.0172 3.3336 0 
831 1 0.49 70.00 14.4985 0.5953 0 
832 1 0.48 70.00 27.5387 4.0965 0 
833 1 0.47 70.00 12.4874 6.5354 0 
834 1 0.41 70.00 20.5900 3.8736 0 
835 1 0.47 70.00 9.8288 4.9215 0 
836 1 0.46 70.00 15.6613 5.0313 0 
837 1 0.47 70.00 9.8826 2.3391 0 
838 1 0.45 70.00 26.6909 2.5788 0 
839 1 0.52 70.00 7.4187 3.6415 0 
840 1 0.46 70.00 4.8371 4.7712 0 
841 1 0.50 70.00 26.4399 1.5398 0 
842 1 0.45 70.00 15.6856 5.7230 0 
843 1 0.45 70.00 10.0362 4.3083 0 
844 1 0.43 70.00 25.8448 0.5600 0 
845 1 0.46 70.00 19.3153 6.6395 0 
846 1 0.46 70.00 12.8802 1.5109 0 
847 1 0.43 70.00 2.2401 5.1288 0 
848 1 0.44 70.00 9.2499 4.2343 0 
849 1 0.50 70.00 14.5167 4.5642 0 
850 1 0.50 70.00 9.7004 0.9440 0 
851 1 0.45 70.00 5.9461 2.8192 0 
852 1 0.47 70.00 16.3552 1.5327 0 
853 1 0.48 70.00 25.8614 2.7463 0 
854 1 0.45 70.00 22.9088 6.0846 0 
855 1 0.52 70.00 25.1713 4.5493 0 
856 1 0.46 70.00 27.7526 4.4010 0 
857 1 0.47 70.00 26.6583 3.7771 0 
858 1 0.48 70.00 17.1270 0.9203 0 
859 1 0.49 70.00 3.5380 2.7647 0 
860 1 0.45 70.00 18.3294 5.3086 0 
861 1 0.46 70.00 26.7254 6.2990 0 
862 1 0.45 70.00 14.7594 5.6631 0 
863 1 0.46 70.00 15.2860 5.8501 0 
864 1 0.43 70.00 1.8872 1.0526 0 