# LAMMPS data file for rigid bodies

1568 atoms

2 atom types

0.0 	 28.0 	 xlo xhi 
0.0 	 7.0 	 ylo yhi 
-1.0 	 1.0 	 zlo zhi 

Atoms

1 1 0.50 70.00 8.8097 6.2379 0 
2 1 0.54 70.00 21.2112 4.7359 0 
3 1 0.46 70.00 11.9112 5.6627 0 
4 1 0.50 70.00 1.8310 4.1011 0 
5 1 0.43 70.00 16.5017 2.0015 0 
6 1 0.52 70.00 17.1733 0.9766 0 
7 1 0.44 70.00 27.4868 3.1061 0 
8 1 0.49 70.00 11.2330 5.3792 0 
9 1 0.45 70.00 20.6183 1.5966 0 
10 1 0.43 70.00 0.8040 4.9984 0 
11 1 0.47 70.00 7.9472 2.4380 0 
12 1 0.43 70.00 9.5953 6.2770 0 
13 1 0.47 70.00 27.2281 4.4086 0 
14 1 0.48 70.00 2.1615 3.5176 0 
15 1 0.46 70.00 3.6398 5.9447 0 
16 1 0.44 70.00 1.3768 0.8387 0 
17 1 0.46 70.00 3.0138 4.1813 0 
18 1 0.49 70.00 24.8550 5.5421 0 
19 1 0.48 70.00 13.6988 2.5601 0 
20 1 0.50 70.00 10.9078 4.0200 0 
21 1 0.49 70.00 25.7423 0.7868 0 
22 1 0.47 70.00 4.6628 3.2565 0 
23 1 0.46 70.00 16.2263 6.5532 0 
24 1 0.48 70.00 6.0848 6.3103 0 
25 1 0.50 70.00 11.9799 3.2556 0 
26 1 0.51 70.00 18.1737 3.6106 0 
27 1 0.47 70.00 14.1612 2.0191 0 
28 1 0.46 70.00 24.6157 0.5073 0 
29 1 0.45 70.00 1.7586 5.1426 0 
30 1 0.46 70.00 6.6896 2.5373 0 
31 1 0.50 70.00 4.9334 6.5719 0 
32 1 0.45 70.00 18.1605 4.6877 0 
33 1 0.47 70.00 3.6333 3.7929 0 
34 1 0.46 70.00 6.2555 6.5860 0 
35 1 0.50 70.00 18.4781 1.2807 0 
36 1 0.43 70.00 24.5477 0.9044 0 
37 1 0.50 70.00 19.9936 1.7859 0 
38 1 0.47 70.00 25.1972 6.4497 0 
39 1 0.48 70.00 4.8329 4.3499 0 
40 1 0.49 70.00 24.3654 2.4373 0 
41 1 0.46 70.00 5.1347 6.3770 0 
42 1 0.51 70.00 4.0323 5.1181 0 
43 1 0.45 70.00 20.3971 1.3977 0 
44 1 0.51 70.00 19.7735 6.6692 0 
45 1 0.48 70.00 11.5931 5.8663 0 
46 1 0.44 70.00 5.0547 1.5051 0 
47 1 0.41 70.00 5.6167 0.9201 0 
48 1 0.41 70.00 6.7140 1.5468 0 
49 1 0.48 70.00 13.2565 3.5171 0 
50 1 0.52 70.00 18.4309 0.5160 0 
51 1 0.43 70.00 15.3650 3.5220 0 
52 1 0.46 70.00 17.9405 5.6573 0 
53 1 0.49 70.00 3.5520 6.3450 0 
54 1 0.42 70.00 26.8787 3.5247 0 
55 1 0.47 70.00 2.1884 1.6625 0 
56 1 0.45 70.00 3.0397 4.5730 0 
57 1 0.50 70.00 21.7824 5.4176 0 
58 1 0.49 70.00 20.5357 5.1903 0 
59 1 0.52 70.00 20.7192 0.6783 0 
60 1 0.47 70.00 10.9121 5.4670 0 
61 1 0.48 70.00 18.5884 3.3058 0 
62 1 0.45 70.00 1.5064 5.8911 0 
63 1 0.46 70.00 9.5436 4.1474 0 
64 1 0.47 70.00 6.1144 3.9755 0 
65 1 0.46 70.00 4.7064 1.6048 0 
66 1 0.46 70.00 14.5381 5.5490 0 
67 1 0.47 70.00 16.0622 4.2014 0 
68 1 0.46 70.00 18.5801 2.0296 0 
69 1 0.44 70.00 18.7245 0.9415 0 
70 1 0.49 70.00 3.7431 4.0711 0 
71 1 0.44 70.00 8.0045 5.7895 0 
72 1 0.46 70.00 24.4451 4.6284 0 
73 1 0.48 70.00 7.6063 4.1908 0 
74 1 0.47 70.00 22.4807 5.5982 0 
75 1 0.48 70.00 19.2514 3.9735 0 
76 1 0.49 70.00 16.6399 1.1437 0 
77 1 0.47 70.00 14.5071 5.8650 0 
78 1 0.49 70.00 11.0079 5.7178 0 
79 1 0.47 70.00 4.8628 2.3228 0 
80 1 0.47 70.00 16.3156 3.7909 0 
81 1 0.43 70.00 13.7297 3.6492 0 
82 1 0.53 70.00 2.2360 2.0726 0 
83 1 0.48 70.00 0.7687 3.7717 0 
84 1 0.47 70.00 6.9612 1.7505 0 
85 1 0.51 70.00 27.3353 1.8169 0 
86 1 0.45 70.00 17.9252 3.4828 0 
87 1 0.50 70.00 22.0995 3.5747 0 
88 1 0.46 70.00 11.9818 6.3966 0 
89 1 0.45 70.00 26.5288 2.8007 0 
90 1 0.47 70.00 7.0068 3.0121 0 
91 1 0.46 70.00 16.1111 1.7397 0 
92 1 0.47 70.00 22.9011 3.8473 0 
93 1 0.50 70.00 23.1672 4.3153 0 
94 1 0.41 70.00 22.5639 0.8487 0 
95 1 0.47 70.00 4.4728 3.8037 0 
96 1 0.47 70.00 20.4405 6.7150 0 
97 1 0.44 70.00 13.4260 4.5869 0 
98 1 0.43 70.00 20.4857 5.4853 0 
99 1 0.48 70.00 14.4307 6.7749 0 
100 1 0.45 70.00 10.0444 3.1021 0 
101 1 0.44 70.00 4.8727 0.7966 0 
102 1 0.46 70.00 17.3740 5.4290 0 
103 1 0.50 70.00 14.8782 0.6651 0 
104 1 0.43 70.00 11.2339 6.0522 0 
105 1 0.42 70.00 15.9823 3.3653 0 
106 1 0.51 70.00 22.2837 5.2631 0 
107 1 0.42 70.00 22.2073 6.7613 0 
108 1 0.45 70.00 15.6765 2.1518 0 
109 1 0.44 70.00 27.3554 0.9132 0 
110 1 0.45 70.00 9.5396 1.7264 0 
111 1 0.45 70.00 7.8838 0.6045 0 
112 1 0.46 70.00 17.6811 4.0622 0 
113 1 0.55 70.00 6.9965 4.7517 0 
114 1 0.46 70.00 2.8464 3.9157 0 
115 1 0.47 70.00 6.3600 5.6273 0 
116 1 0.47 70.00 7.0581 3.7528 0 
117 1 0.49 70.00 26.5868 3.2805 0 
118 1 0.47 70.00 14.3976 2.3797 0 
119 1 0.49 70.00 15.5469 5.4246 0 
120 1 0.49 70.00 2.5765 6.1559 0 
121 1 0.45 70.00 22.5595 1.4916 0 
122 1 0.43 70.00 15.9246 5.5757 0 
123 1 0.45 70.00 19.3748 2.3250 0 
124 1 0.52 70.00 22.0145 4.3547 0 
125 1 0.48 70.00 17.6859 5.1039 0 
126 1 0.46 70.00 22.6242 1.0766 0 
127 1 0.45 70.00 25.0348 2.1837 0 
128 1 0.47 70.00 14.5747 6.3583 0 
129 1 0.46 70.00 24.9023 2.0127 0 
130 1 0.54 70.00 1.5922 4.4400 0 
131 1 0.45 70.00 18.1991 4.3695 0 
132 1 0.48 70.00 23.7882 2.5982 0 
133 1 0.46 70.00 21.8333 6.2116 0 
134 1 0.47 70.00 19.0713 3.0867 0 
135 1 0.48 70.00 9.3203 1.7131 0 
136 1 0.46 70.00 20.7534 6.5144 0 
137 1 0.54 70.00 21.7890 4.3809 0 
138 1 0.52 70.00 23.7575 0.7670 0 
139 1 0.47 70.00 18.7785 4.4543 0 
140 1 0.53 70.00 24.7459 3.6689 0 
141 1 0.49 70.00 24.9599 4.7880 0 
142 1 0.45 70.00 20.8412 5.5847 0 
143 1 0.46 70.00 4.4045 5.3258 0 
144 1 0.46 70.00 26.4454 2.4745 0 
145 1 0.46 70.00 15.0713 5.6977 0 
146 1 0.47 70.00 14.9997 1.9617 0 
147 1 0.54 70.00 4.6240 2.6568 0 
148 1 0.46 70.00 8.7521 6.6624 0 
149 1 0.51 70.00 17.9866 0.8673 0 
150 1 0.52 70.00 23.0157 1.9665 0 
151 1 0.50 70.00 5.5989 4.5374 0 
152 1 0.47 70.00 23.1258 3.7422 0 
153 1 0.43 70.00 7.4042 5.0447 0 
154 1 0.54 70.00 17.6641 2.1948 0 
155 1 0.39 70.00 8.9161 4.9957 0 
156 1 0.46 70.00 27.2983 3.5699 0 
157 1 0.46 70.00 11.1782 4.3304 0 
158 1 0.43 70.00 6.5302 1.1917 0 
159 1 0.48 70.00 19.2572 1.4869 0 
160 1 0.50 70.00 17.0630 5.0930 0 
161 1 0.51 70.00 2.8283 3.0735 0 
162 1 0.47 70.00 16.4819 2.4270 0 
163 1 0.51 70.00 1.5589 1.1184 0 
164 1 0.44 70.00 27.1289 3.2879 0 
165 1 0.46 70.00 15.2252 4.0380 0 
166 1 0.45 70.00 11.9871 3.9563 0 
167 1 0.46 70.00 0.8216 1.0955 0 
168 1 0.47 70.00 3.8068 4.3623 0 
169 1 0.44 70.00 23.8072 1.7963 0 
170 1 0.45 70.00 4.1574 1.7889 0 
171 1 0.50 70.00 1.3244 1.9017 0 
172 1 0.39 70.00 27.7705 1.7250 0 
173 1 0.46 70.00 15.4948 1.2676 0 
174 1 0.51 70.00 13.9473 1.9590 0 
175 1 0.48 70.00 18.8232 3.9569 0 
176 1 0.46 70.00 16.7411 5.0663 0 
177 1 0.45 70.00 24.8364 4.1725 0 
178 1 0.45 70.00 9.1559 2.7493 0 
179 1 0.40 70.00 22.6949 3.9226 0 
180 1 0.42 70.00 12.5838 1.7563 0 
181 1 0.48 70.00 8.5149 3.8508 0 
182 1 0.44 70.00 10.6661 5.2892 0 
183 1 0.44 70.00 10.4655 6.1129 0 
184 1 0.45 70.00 24.3682 6.5860 0 
185 1 0.49 70.00 23.3092 1.9032 0 
186 1 0.48 70.00 24.6866 5.8193 0 
187 1 0.51 70.00 19.8196 2.9753 0 
188 1 0.48 70.00 22.2780 1.7972 0 
189 1 0.47 70.00 17.3287 0.7059 0 
190 1 0.44 70.00 24.8513 6.3729 0 
191 1 0.46 70.00 3.2374 4.6319 0 
192 1 0.47 70.00 26.8218 0.8037 0 
193 1 0.52 70.00 2.5377 2.5464 0 
194 1 0.41 70.00 26.0849 4.5319 0 
195 1 0.45 70.00 9.0041 5.4799 0 
196 1 0.48 70.00 9.9247 6.6414 0 
197 1 0.46 70.00 27.7945 4.4179 0 
198 1 0.49 70.00 25.0359 3.1549 0 
199 1 0.47 70.00 5.1785 0.5343 0 
200 1 0.46 70.00 1.0486 2.0330 0 
201 1 0.52 70.00 18.0078 6.6070 0 
202 1 0.44 70.00 3.1576 0.7257 0 
203 1 0.46 70.00 14.2663 1.7234 0 
204 1 0.48 70.00 1.2485 5.5194 0 
205 1 0.50 70.00 19.0528 5.1504 0 
206 1 0.43 70.00 20.9906 6.6791 0 
207 1 0.45 70.00 18.5061 6.6554 0 
208 1 0.46 70.00 23.3137 4.0428 0 
209 1 0.53 70.00 15.5688 4.7524 0 
210 1 0.50 70.00 13.6932 6.0646 0 
211 1 0.49 70.00 8.6682 1.4498 0 
212 1 0.45 70.00 4.6869 3.4597 0 
213 1 0.52 70.00 4.6252 5.2778 0 
214 1 0.46 70.00 16.9853 2.2054 0 
215 1 0.46 70.00 5.5487 2.5168 0 
216 1 0.44 70.00 18.8658 3.3802 0 
217 1 0.48 70.00 20.5246 0.5401 0 
218 1 0.47 70.00 26.6462 4.3057 0 
219 1 0.48 70.00 27.0713 1.3000 0 
220 1 0.50 70.00 6.9739 6.4468 0 
221 1 0.44 70.00 4.8080 5.0039 0 
222 1 0.46 70.00 15.1414 3.7040 0 
223 1 0.51 70.00 7.8017 0.8125 0 
224 1 0.52 70.00 7.5768 3.1861 0 
225 1 0.48 70.00 11.8832 5.2127 0 
226 1 0.52 70.00 19.0790 6.6848 0 
227 1 0.45 70.00 12.4435 4.3560 0 
228 1 0.49 70.00 7.7963 5.2781 0 
229 1 0.47 70.00 16.7289 5.3826 0 
230 1 0.43 70.00 6.4361 2.9610 0 
231 1 0.53 70.00 24.6682 6.2228 0 
232 1 0.51 70.00 16.8404 1.7693 0 
233 1 0.49 70.00 3.8670 2.0162 0 
234 1 0.56 70.00 19.6459 1.4348 0 
235 1 0.44 70.00 0.7303 5.6363 0 
236 1 0.50 70.00 9.9420 4.7598 0 
237 1 0.46 70.00 9.4515 5.0121 0 
238 1 0.42 70.00 2.5654 3.2029 0 
239 1 0.45 70.00 1.5048 5.0118 0 
240 1 0.48 70.00 14.6628 4.0961 0 
241 1 0.48 70.00 25.2127 5.6348 0 
242 1 0.44 70.00 4.3054 3.6734 0 
243 1 0.47 70.00 24.1671 6.0308 0 
244 1 0.47 70.00 7.3577 3.7113 0 
245 1 0.56 70.00 12.6315 6.1661 0 
246 1 0.44 70.00 3.5662 2.9257 0 
247 1 0.48 70.00 25.6273 2.8766 0 
248 1 0.43 70.00 13.6526 4.6802 0 
249 1 0.47 70.00 25.8826 0.9915 0 
250 1 0.41 70.00 19.4310 6.3253 0 
251 1 0.50 70.00 2.2999 4.8374 0 
252 1 0.41 70.00 4.1268 4.3557 0 
253 1 0.49 70.00 14.6401 6.0472 0 
254 1 0.48 70.00 3.3744 1.4734 0 
255 1 0.43 70.00 27.6741 6.2138 0 
256 1 0.43 70.00 12.5529 6.6804 0 
257 1 0.48 70.00 7.4439 2.7420 0 
258 1 0.45 70.00 15.7979 6.6111 0 
259 1 0.46 70.00 12.9044 4.0272 0 
260 1 0.46 70.00 20.9215 1.6433 0 
261 1 0.45 70.00 21.1704 3.2738 0 
262 1 0.50 70.00 9.9726 6.0576 0 
263 1 0.45 70.00 25.0187 6.5996 0 
264 1 0.48 70.00 21.1139 5.5714 0 
265 1 0.48 70.00 14.9896 0.9712 0 
266 1 0.52 70.00 11.0280 1.5232 0 
267 1 0.53 70.00 10.3591 1.9441 0 
268 1 0.46 70.00 1.0032 4.3533 0 
269 1 0.57 70.00 2.6776 4.3130 0 
270 1 0.43 70.00 5.9688 6.7799 0 
271 1 0.45 70.00 25.8849 4.2645 0 
272 1 0.45 70.00 22.9824 6.2535 0 
273 1 0.51 70.00 11.6841 6.2107 0 
274 1 0.54 70.00 23.8633 3.1442 0 
275 1 0.49 70.00 9.6819 1.4367 0 
276 1 0.46 70.00 22.1878 1.9962 0 
277 1 0.46 70.00 27.6133 1.3871 0 
278 1 0.43 70.00 11.4759 4.2106 0 
279 1 0.43 70.00 10.6354 3.6914 0 
280 1 0.52 70.00 11.7801 4.2803 0 
281 1 0.45 70.00 23.3399 5.6137 0 
282 1 0.48 70.00 13.3237 1.3857 0 
283 1 0.46 70.00 6.4649 6.4991 0 
284 1 0.49 70.00 15.5441 4.5060 0 
285 1 0.45 70.00 25.7021 4.4256 0 
286 1 0.51 70.00 8.5465 6.2257 0 
287 1 0.46 70.00 23.9072 5.6464 0 
288 1 0.46 70.00 7.4761 5.7690 0 
289 1 0.48 70.00 16.8445 3.2420 0 
290 1 0.48 70.00 26.1369 1.6860 0 
291 1 0.47 70.00 12.5332 3.5802 0 
292 1 0.48 70.00 1.2885 3.4735 0 
293 1 0.37 70.00 3.8177 2.6564 0 
294 1 0.46 70.00 16.2073 0.6516 0 
295 1 0.45 70.00 13.4264 1.7586 0 
296 1 0.47 70.00 13.7623 5.8331 0 
297 1 0.42 70.00 20.6405 2.7930 0 
298 1 0.48 70.00 15.1690 5.8979 0 
299 1 0.49 70.00 16.1341 2.7987 0 
300 1 0.49 70.00 24.4455 3.2905 0 
301 1 0.50 70.00 7.5634 3.5248 0 
302 1 0.48 70.00 1.7501 6.5726 0 
303 1 0.49 70.00 16.8153 0.5822 0 
304 1 0.46 70.00 14.4533 2.1642 0 
305 1 0.47 70.00 5.2305 1.9951 0 
306 1 0.49 70.00 21.2804 6.3089 0 
307 1 0.46 70.00 25.5599 1.8401 0 
308 1 0.44 70.00 1.6310 5.5884 0 
309 1 0.49 70.00 2.3623 1.8482 0 
310 1 0.51 70.00 16.4895 3.9223 0 
311 1 0.44 70.00 18.8030 3.6210 0 
312 1 0.46 70.00 25.1309 1.2375 0 
313 1 0.48 70.00 5.4870 5.1685 0 
314 1 0.49 70.00 25.6225 4.8522 0 
315 1 0.44 70.00 14.0170 2.4045 0 
316 1 0.51 70.00 2.5931 0.6000 0 
317 1 0.50 70.00 23.2455 3.3772 0 
318 1 0.47 70.00 26.3183 1.4795 0 
319 1 0.46 70.00 8.5555 2.9641 0 
320 1 0.45 70.00 17.7589 4.4187 0 
321 1 0.45 70.00 11.5138 6.4655 0 
322 1 0.51 70.00 8.3965 4.1757 0 
323 1 0.48 70.00 26.2001 2.7677 0 
324 1 0.46 70.00 20.2859 3.4626 0 
325 1 0.51 70.00 24.2182 4.2112 0 
326 1 0.46 70.00 17.2709 3.0149 0 
327 1 0.43 70.00 11.6715 5.3963 0 
328 1 0.48 70.00 5.7031 6.7433 0 
329 1 0.50 70.00 21.2385 5.9051 0 
330 1 0.46 70.00 27.5546 2.4339 0 
331 1 0.46 70.00 25.8814 4.6577 0 
332 1 0.53 70.00 18.4533 5.1276 0 
333 1 0.51 70.00 7.9209 4.8044 0 
334 1 0.48 70.00 25.3806 6.2657 0 
335 1 0.43 70.00 7.2548 1.1725 0 
336 1 0.46 70.00 20.7542 3.1374 0 
337 1 0.47 70.00 9.8634 5.1679 0 
338 1 0.46 70.00 16.2122 2.0701 0 
339 1 0.50 70.00 1.4348 4.0779 0 
340 1 0.44 70.00 0.5836 6.7539 0 
341 1 0.43 70.00 14.3877 0.9520 0 
342 1 0.49 70.00 20.7413 2.4238 0 
343 1 0.44 70.00 5.3867 4.8309 0 
344 1 0.45 70.00 3.0737 5.4893 0 
345 1 0.48 70.00 19.2388 5.8331 0 
346 1 0.48 70.00 7.3470 3.2271 0 
347 1 0.49 70.00 21.1429 1.7914 0 
348 1 0.48 70.00 26.9257 1.9671 0 
349 1 0.45 70.00 2.8729 5.7490 0 
350 1 0.42 70.00 17.5181 1.9937 0 
351 1 0.48 70.00 12.1008 1.4457 0 
352 1 0.49 70.00 19.3603 2.6675 0 
353 1 0.44 70.00 12.8488 5.5315 0 
354 1 0.46 70.00 2.5175 5.4371 0 
355 1 0.47 70.00 7.4712 1.8007 0 
356 1 0.42 70.00 8.0600 6.4538 0 
357 1 0.45 70.00 0.6067 4.7936 0 
358 1 0.46 70.00 8.1935 2.0245 0 
359 1 0.51 70.00 1.4539 2.5747 0 
360 1 0.43 70.00 13.7194 4.3709 0 
361 1 0.52 70.00 25.3118 1.6210 0 
362 1 0.47 70.00 12.6291 4.6996 0 
363 1 0.48 70.00 13.6227 3.3791 0 
364 1 0.47 70.00 13.1503 0.8236 0 
365 1 0.45 70.00 7.4971 0.9002 0 
366 1 0.50 70.00 22.8006 5.4136 0 
367 1 0.51 70.00 14.4250 6.0696 0 
368 1 0.51 70.00 14.5344 4.3140 0 
369 1 0.46 70.00 14.7708 5.4901 0 
370 1 0.50 70.00 7.0600 3.2373 0 
371 1 0.45 70.00 20.8705 4.9188 0 
372 1 0.45 70.00 3.9283 2.9239 0 
373 1 0.47 70.00 22.0920 5.4961 0 
374 1 0.51 70.00 11.2611 1.3675 0 
375 1 0.52 70.00 26.3006 4.4844 0 
376 1 0.49 70.00 21.5526 3.2367 0 
377 1 0.47 70.00 6.4647 5.4206 0 
378 1 0.48 70.00 7.0167 5.3745 0 
379 1 0.44 70.00 25.4381 5.6592 0 
380 1 0.45 70.00 26.1016 5.2634 0 
381 1 0.52 70.00 24.5580 2.2694 0 
382 1 0.46 70.00 0.8592 3.1158 0 
383 1 0.47 70.00 22.7446 2.2229 0 
384 1 0.45 70.00 13.0785 4.9854 0 
385 1 0.45 70.00 17.4546 3.7625 0 
386 1 0.43 70.00 18.9012 6.4988 0 
387 1 0.44 70.00 19.5174 1.6340 0 
388 1 0.42 70.00 8.7632 2.8876 0 
389 1 0.53 70.00 24.7401 4.9668 0 
390 1 0.44 70.00 1.6136 3.7951 0 
391 1 0.47 70.00 22.2417 5.6469 0 
392 1 0.49 70.00 16.1591 1.0648 0 
393 1 0.51 70.00 3.1602 3.3013 0 
394 1 0.44 70.00 26.4442 5.3485 0 
395 1 0.45 70.00 17.4541 5.1130 0 
396 1 0.42 70.00 14.7658 4.3557 0 
397 1 0.49 70.00 18.9761 1.2479 0 
398 1 0.49 70.00 20.7112 3.4677 0 
399 1 0.46 70.00 2.0149 2.0022 0 
400 1 0.51 70.00 13.6079 6.7595 0 
401 1 0.45 70.00 15.1989 6.6735 0 
402 1 0.44 70.00 22.2882 5.9417 0 
403 1 0.49 70.00 12.0891 6.7157 0 
404 1 0.46 70.00 13.1657 3.0696 0 
405 1 0.45 70.00 21.7607 1.3989 0 
406 1 0.47 70.00 1.0916 1.4465 0 
407 1 0.49 70.00 27.5295 3.8338 0 
408 1 0.42 70.00 24.7737 1.2510 0 
409 1 0.47 70.00 12.1814 1.9097 0 
410 1 0.47 70.00 24.0431 4.6024 0 
411 1 0.50 70.00 3.3477 2.9156 0 
412 1 0.44 70.00 13.2743 1.9912 0 
413 1 0.48 70.00 2.3673 4.1613 0 
414 1 0.42 70.00 19.2109 3.4077 0 
415 1 0.48 70.00 1.0845 4.9006 0 
416 1 0.47 70.00 10.8029 0.8734 0 
417 1 0.39 70.00 1.1399 5.3059 0 
418 1 0.43 70.00 9.9680 0.8506 0 
419 1 0.43 70.00 13.1000 1.8106 0 
420 1 0.48 70.00 21.8144 3.2297 0 
421 1 0.52 70.00 17.3185 1.6640 0 
422 1 0.43 70.00 17.8233 0.6420 0 
423 1 0.46 70.00 4.5386 2.3199 0 
424 1 0.44 70.00 7.0969 1.4392 0 
425 1 0.48 70.00 11.7655 1.0411 0 
426 1 0.48 70.00 11.0552 1.0348 0 
427 1 0.51 70.00 13.6576 2.1561 0 
428 1 0.46 70.00 6.9312 4.4517 0 
429 1 0.49 70.00 14.4040 2.8750 0 
430 1 0.48 70.00 1.1809 5.7995 0 
431 1 0.48 70.00 1.7830 2.6036 0 
432 1 0.43 70.00 21.1867 1.0643 0 
433 1 0.45 70.00 16.9025 3.4496 0 
434 1 0.45 70.00 26.5551 5.1182 0 
435 1 0.49 70.00 19.8069 0.8570 0 
436 1 0.47 70.00 11.7893 1.9620 0 
437 1 0.51 70.00 23.5545 2.8518 0 
438 1 0.47 70.00 4.8706 5.7702 0 
439 1 0.42 70.00 11.4137 0.6186 0 
440 1 0.45 70.00 11.8866 2.5833 0 
441 1 0.48 70.00 19.1633 2.2611 0 
442 1 0.47 70.00 19.6612 3.8354 0 
443 1 0.48 70.00 19.5447 5.4188 0 
444 1 0.55 70.00 26.0082 6.4485 0 
445 1 0.49 70.00 3.3207 2.4730 0 
446 1 0.44 70.00 21.6764 5.6942 0 
447 1 0.50 70.00 18.4774 5.7224 0 
448 1 0.48 70.00 12.4936 3.8343 0 
449 1 0.49 70.00 8.5353 5.7567 0 
450 1 0.46 70.00 9.7280 0.8893 0 
451 1 0.49 70.00 22.3055 2.1595 0 
452 1 0.50 70.00 13.9541 5.9819 0 
453 1 0.51 70.00 14.2957 6.3573 0 
454 1 0.50 70.00 7.7388 2.6062 0 
455 1 0.44 70.00 21.4263 1.7914 0 
456 1 0.49 70.00 4.6438 0.8373 0 
457 1 0.44 70.00 1.8571 6.2676 0 
458 1 0.46 70.00 10.8005 3.0260 0 
459 1 0.46 70.00 14.0148 6.6416 0 
460 1 0.46 70.00 4.6257 0.5221 0 
461 1 0.48 70.00 2.8663 2.7153 0 
462 1 0.47 70.00 4.7215 5.6138 0 
463 1 0.49 70.00 20.3649 2.8927 0 
464 1 0.47 70.00 14.9201 4.6129 0 
465 1 0.44 70.00 11.7872 0.5419 0 
466 1 0.47 70.00 1.9417 3.7860 0 
467 1 0.45 70.00 10.4875 3.5372 0 
468 1 0.52 70.00 19.6154 6.0060 0 
469 1 0.44 70.00 3.1484 4.3418 0 
470 1 0.42 70.00 11.6491 1.2454 0 
471 1 0.46 70.00 26.9633 2.5745 0 
472 1 0.51 70.00 18.1960 2.1429 0 
473 1 0.45 70.00 2.8309 0.5995 0 
474 1 0.49 70.00 27.5554 4.2838 0 
475 1 0.50 70.00 22.7825 0.7232 0 
476 1 0.45 70.00 26.8482 4.8499 0 
477 1 0.50 70.00 10.4104 3.2530 0 
478 1 0.46 70.00 4.2383 3.8825 0 
479 1 0.48 70.00 8.9850 1.8501 0 
480 1 0.44 70.00 1.2390 3.7087 0 
481 1 0.47 70.00 21.6893 4.7447 0 
482 1 0.56 70.00 3.8569 1.7455 0 
483 1 0.48 70.00 12.3306 1.0017 0 
484 1 0.49 70.00 26.4578 3.5345 0 
485 1 0.50 70.00 27.4412 6.5067 0 
486 1 0.46 70.00 7.3721 6.6765 0 
487 1 0.45 70.00 17.8029 6.6345 0 
488 1 0.51 70.00 4.7454 6.4474 0 
489 1 0.52 70.00 7.6162 4.9748 0 
490 1 0.48 70.00 9.1615 4.1004 0 
491 1 0.49 70.00 0.6509 3.9745 0 
492 1 0.45 70.00 15.3462 2.4164 0 
493 1 0.43 70.00 15.1055 3.2795 0 
494 1 0.44 70.00 25.6631 5.0985 0 
495 1 0.42 70.00 3.8161 6.7068 0 
496 1 0.46 70.00 7.3859 5.9969 0 
497 1 0.49 70.00 0.6673 3.5126 0 
498 1 0.46 70.00 6.7161 1.8638 0 
499 1 0.49 70.00 5.7197 2.2710 0 
500 1 0.41 70.00 15.3314 5.3693 0 
501 1 0.46 70.00 13.0146 0.5031 0 
502 1 0.45 70.00 13.3868 5.1094 0 
503 1 0.52 70.00 14.1034 1.0219 0 
504 1 0.46 70.00 19.2276 4.8415 0 
505 1 0.48 70.00 20.3052 0.8981 0 
506 1 0.43 70.00 17.6042 3.4838 0 
507 1 0.46 70.00 15.0909 6.3417 0 
508 1 0.48 70.00 2.9365 1.4238 0 
509 1 0.46 70.00 0.5794 1.0420 0 
510 1 0.53 70.00 24.5645 6.0160 0 
511 1 0.50 70.00 7.9292 1.0626 0 
512 1 0.43 70.00 4.9976 5.9352 0 
513 1 0.51 70.00 6.2209 5.1091 0 
514 1 0.47 70.00 6.0232 2.3975 0 
515 1 0.44 70.00 20.4270 3.8270 0 
516 1 0.47 70.00 16.0505 5.3042 0 
517 1 0.46 70.00 11.9466 3.6828 0 
518 1 0.47 70.00 20.1084 1.2197 0 
519 1 0.50 70.00 25.6775 2.5708 0 
520 1 0.48 70.00 19.4955 0.9939 0 
521 1 0.44 70.00 22.6844 2.0259 0 
522 1 0.45 70.00 22.9259 2.3416 0 
523 1 0.46 70.00 0.7881 2.0917 0 
524 1 0.43 70.00 17.8844 1.2146 0 
525 1 0.47 70.00 3.7026 3.2615 0 
526 1 0.50 70.00 20.0066 2.5137 0 
527 1 0.49 70.00 25.8404 6.2646 0 
528 1 0.50 70.00 8.4281 3.1626 0 
529 1 0.47 70.00 7.1403 4.4991 0 
530 1 0.46 70.00 10.6414 1.4945 0 
531 1 0.48 70.00 10.6857 1.9435 0 
532 1 0.44 70.00 12.1204 5.2872 0 
533 1 0.48 70.00 2.8897 0.9655 0 
534 1 0.49 70.00 18.9693 5.6722 0 
535 1 0.46 70.00 12.3955 3.3068 0 
536 1 0.43 70.00 2.4948 3.8981 0 
537 1 0.44 70.00 17.2668 4.1181 0 
538 1 0.48 70.00 19.1454 6.0452 0 
539 1 0.50 70.00 20.0082 5.8167 0 
540 1 0.45 70.00 17.3981 6.1408 0 
541 1 0.43 70.00 6.3618 2.4000 0 
542 1 0.49 70.00 16.8652 5.7288 0 
543 1 0.47 70.00 4.8353 1.9107 0 
544 1 0.47 70.00 18.2500 6.0088 0 
545 1 0.47 70.00 6.7128 6.4393 0 
546 1 0.49 70.00 18.9480 0.9184 0 
547 1 0.47 70.00 7.9166 4.3005 0 
548 1 0.43 70.00 22.0670 0.8329 0 
549 1 0.45 70.00 5.4796 1.8750 0 
550 1 0.49 70.00 6.5432 5.9542 0 
551 1 0.43 70.00 4.7811 6.7755 0 
552 1 0.53 70.00 20.7716 3.6674 0 
553 1 0.47 70.00 8.6612 0.6689 0 
554 1 0.49 70.00 13.9495 6.1973 0 
555 1 0.51 70.00 7.5497 1.2386 0 
556 1 0.44 70.00 10.2959 1.2089 0 
557 1 0.45 70.00 10.3841 0.8703 0 
558 1 0.47 70.00 24.3660 5.9309 0 
559 1 0.43 70.00 9.8063 3.1074 0 
560 1 0.50 70.00 22.9222 3.2210 0 
561 1 0.46 70.00 9.3196 2.4025 0 
562 1 0.45 70.00 1.6148 1.3903 0 
563 1 0.49 70.00 25.8224 5.7222 0 
564 1 0.44 70.00 3.1761 1.8639 0 
565 1 0.49 70.00 16.8156 6.0715 0 
566 1 0.45 70.00 24.0323 6.2270 0 
567 1 0.44 70.00 22.8025 3.6211 0 
568 1 0.50 70.00 21.2996 2.8293 0 
569 1 0.51 70.00 22.3760 4.0109 0 
570 1 0.42 70.00 5.6770 6.2764 0 
571 1 0.50 70.00 21.5890 5.1145 0 
572 1 0.48 70.00 17.8618 3.2657 0 
573 1 0.49 70.00 3.5759 2.6520 0 
574 1 0.46 70.00 10.9498 4.5787 0 
575 1 0.46 70.00 22.9215 1.6201 0 
576 1 0.49 70.00 24.4629 1.9478 0 
577 1 0.47 70.00 19.5285 3.2087 0 
578 1 0.47 70.00 13.2330 6.1709 0 
579 1 0.47 70.00 13.8806 1.0123 0 
580 1 0.42 70.00 25.7499 3.5056 0 
581 1 0.44 70.00 8.1337 3.6226 0 
582 1 0.46 70.00 23.9287 4.1781 0 
583 1 0.49 70.00 19.4958 5.7797 0 
584 1 0.46 70.00 4.4619 0.7286 0 
585 1 0.48 70.00 11.7896 4.5456 0 
586 1 0.45 70.00 4.0588 3.4263 0 
587 1 0.47 70.00 7.9841 2.0974 0 
588 1 0.43 70.00 9.7408 2.1924 0 
589 1 0.45 70.00 22.1278 0.5800 0 
590 1 0.45 70.00 18.5893 2.2558 0 
591 1 0.42 70.00 9.4798 1.4547 0 
592 1 0.45 70.00 13.3349 6.7063 0 
593 1 0.43 70.00 12.5943 5.5616 0 
594 1 0.48 70.00 3.6060 4.9150 0 
595 1 0.49 70.00 0.9391 4.0799 0 
596 1 0.48 70.00 1.5296 0.6527 0 
597 1 0.45 70.00 13.0764 2.1262 0 
598 1 0.44 70.00 9.3998 3.9303 0 
599 1 0.52 70.00 18.5881 5.8950 0 
600 1 0.48 70.00 2.2765 3.0771 0 
601 1 0.45 70.00 8.1587 6.0896 0 
602 1 0.49 70.00 0.9957 3.4667 0 
603 1 0.47 70.00 21.6034 6.1765 0 
604 1 0.41 70.00 6.8040 3.5214 0 
605 1 0.52 70.00 4.8379 4.7007 0 
606 1 0.45 70.00 4.9433 3.4828 0 
607 1 0.44 70.00 16.6079 5.2185 0 
608 1 0.41 70.00 21.8071 3.5019 0 
609 1 0.47 70.00 21.2370 2.1687 0 
610 1 0.48 70.00 16.3144 3.0128 0 
611 1 0.45 70.00 7.7483 1.4958 0 
612 1 0.47 70.00 23.5124 4.0047 0 
613 1 0.40 70.00 25.1009 4.3025 0 
614 1 0.51 70.00 12.9197 1.0351 0 
615 1 0.46 70.00 5.7127 5.2991 0 
616 1 0.48 70.00 21.4965 1.0858 0 
617 1 0.50 70.00 5.6787 0.5221 0 
618 1 0.48 70.00 17.4014 6.5505 0 
619 1 0.47 70.00 9.2604 4.3393 0 
620 1 0.47 70.00 14.6377 3.0919 0 
621 1 0.46 70.00 10.8744 6.1112 0 
622 1 0.44 70.00 3.6586 2.3137 0 
623 1 0.49 70.00 18.4940 0.7805 0 
624 1 0.50 70.00 23.1229 4.6412 0 
625 1 0.44 70.00 2.7160 5.2006 0 
626 1 0.47 70.00 9.7256 5.5805 0 
627 1 0.46 70.00 16.3093 4.9774 0 
628 1 0.49 70.00 0.9656 2.8669 0 
629 1 0.44 70.00 16.1930 5.5040 0 
630 1 0.40 70.00 6.7528 5.3702 0 
631 1 0.47 70.00 22.5805 6.1632 0 
632 1 0.43 70.00 9.5819 2.7361 0 
633 1 0.45 70.00 2.1898 5.8894 0 
634 1 0.51 70.00 13.7472 5.4539 0 
635 1 0.41 70.00 19.3189 0.8621 0 
636 1 0.47 70.00 25.1931 2.7677 0 
637 1 0.45 70.00 25.1340 5.2330 0 
638 1 0.52 70.00 19.0555 1.4590 0 
639 1 0.44 70.00 21.9933 1.5716 0 
640 1 0.45 70.00 8.1203 4.1719 0 
641 1 0.47 70.00 14.8803 6.4234 0 
642 1 0.45 70.00 24.6331 6.5866 0 
643 1 0.47 70.00 20.2125 4.4787 0 
644 1 0.49 70.00 20.3703 2.0431 0 
645 1 0.46 70.00 25.9781 3.4667 0 
646 1 0.47 70.00 20.1684 5.9440 0 
647 1 0.49 70.00 23.7632 6.2938 0 
648 1 0.47 70.00 2.7542 4.7581 0 
649 1 0.47 70.00 21.2019 4.0515 0 
650 1 0.48 70.00 23.7707 2.8306 0 
651 1 0.52 70.00 2.1420 6.1569 0 
652 1 0.47 70.00 5.5099 1.1160 0 
653 1 0.40 70.00 25.8724 5.1317 0 
654 1 0.43 70.00 13.6964 1.3437 0 
655 1 0.45 70.00 8.7607 5.5457 0 
656 1 0.47 70.00 27.4943 4.9547 0 
657 1 0.47 70.00 2.2695 2.4202 0 
658 1 0.46 70.00 18.8994 6.0255 0 
659 1 0.52 70.00 23.6014 1.9470 0 
660 1 0.46 70.00 11.7824 3.9871 0 
661 1 0.43 70.00 17.0294 2.6940 0 
662 1 0.52 70.00 8.4436 2.6912 0 
663 1 0.48 70.00 27.4138 2.8200 0 
664 1 0.44 70.00 27.4384 5.7300 0 
665 1 0.52 70.00 6.6762 5.5807 0 
666 1 0.46 70.00 20.1412 5.3083 0 
667 1 0.49 70.00 10.6255 6.2651 0 
668 1 0.46 70.00 24.4992 6.3454 0 
669 1 0.42 70.00 27.1055 1.7220 0 
670 1 0.48 70.00 23.6954 3.3368 0 
671 1 0.43 70.00 18.7279 1.2988 0 
672 1 0.46 70.00 19.9341 4.3820 0 
673 1 0.43 70.00 25.5833 6.2245 0 
674 1 0.43 70.00 8.4934 1.8319 0 
675 1 0.47 70.00 26.9284 1.0747 0 
676 1 0.46 70.00 1.2280 6.5387 0 
677 1 0.52 70.00 26.9632 5.4849 0 
678 1 0.49 70.00 4.0288 1.1247 0 
679 1 0.50 70.00 21.4996 2.7254 0 
680 1 0.41 70.00 1.7708 4.8764 0 
681 1 0.52 70.00 15.5772 2.7384 0 
682 1 0.44 70.00 8.2888 5.2799 0 
683 1 0.49 70.00 13.6369 5.0572 0 
684 1 0.48 70.00 15.6186 5.0462 0 
685 1 0.48 70.00 13.7085 6.4913 0 
686 1 0.51 70.00 3.6850 0.6891 0 
687 1 0.46 70.00 12.8287 4.7963 0 
688 1 0.52 70.00 4.0855 2.6940 0 
689 1 0.49 70.00 17.0945 1.6731 0 
690 1 0.47 70.00 20.8275 4.0679 0 
691 1 0.45 70.00 3.0833 6.0389 0 
692 1 0.44 70.00 11.3704 2.6378 0 
693 1 0.50 70.00 27.2276 5.4231 0 
694 1 0.50 70.00 12.3889 5.5937 0 
695 1 0.51 70.00 8.0678 5.0543 0 
696 1 0.44 70.00 18.5043 5.4455 0 
697 1 0.49 70.00 25.1855 3.7087 0 
698 1 0.46 70.00 0.6941 2.7757 0 
699 1 0.43 70.00 27.0741 6.3448 0 
700 1 0.43 70.00 2.8419 5.4863 0 
701 1 0.48 70.00 6.4587 3.6739 0 
702 1 0.46 70.00 14.1228 5.1972 0 
703 1 0.49 70.00 8.4516 1.5630 0 
704 1 0.49 70.00 23.6715 5.8469 0 
705 1 0.46 70.00 25.5660 2.3462 0 
706 1 0.47 70.00 16.4566 1.4884 0 
707 1 0.45 70.00 3.7176 6.1942 0 
708 1 0.38 70.00 4.9786 5.4192 0 
709 1 0.46 70.00 4.2378 1.1690 0 
710 1 0.48 70.00 24.2671 4.4250 0 
711 1 0.49 70.00 11.7321 3.4198 0 
712 1 0.44 70.00 2.5627 4.1112 0 
713 1 0.42 70.00 27.4922 3.5151 0 
714 1 0.46 70.00 17.6467 0.9563 0 
715 1 0.52 70.00 16.6308 2.7772 0 
716 1 0.49 70.00 24.8456 3.0891 0 
717 1 0.47 70.00 11.3785 3.4702 0 
718 1 0.48 70.00 21.5376 4.5620 0 
719 1 0.49 70.00 16.8600 1.1230 0 
720 1 0.42 70.00 18.3048 2.7693 0 
721 1 0.50 70.00 16.1174 5.8557 0 
722 1 0.46 70.00 21.2067 4.2822 0 
723 1 0.50 70.00 22.8532 5.6164 0 
724 1 0.46 70.00 2.9798 1.1806 0 
725 1 0.45 70.00 26.3766 2.9980 0 
726 1 0.53 70.00 17.2016 1.4891 0 
727 1 0.48 70.00 17.8235 1.8118 0 
728 1 0.50 70.00 17.8985 4.6888 0 
729 1 0.46 70.00 25.2491 3.0515 0 
730 1 0.46 70.00 1.8091 0.9737 0 
731 1 0.46 70.00 5.3727 2.3374 0 
732 1 0.47 70.00 19.1401 4.1854 0 
733 1 0.48 70.00 3.3305 0.5578 0 
734 1 0.44 70.00 14.5794 1.5829 0 
735 1 0.49 70.00 25.8799 5.3661 0 
736 1 0.45 70.00 18.6930 2.8070 0 
737 1 0.48 70.00 7.7693 3.3938 0 
738 1 0.48 70.00 6.5263 3.3425 0 
739 1 0.45 70.00 20.5049 6.1562 0 
740 1 0.45 70.00 22.4931 6.7360 0 
741 1 0.44 70.00 14.6416 1.1420 0 
742 1 0.48 70.00 26.5042 6.5237 0 
743 1 0.51 70.00 16.8914 1.3761 0 
744 1 0.51 70.00 12.3465 0.5868 0 
745 1 0.49 70.00 22.7719 2.8843 0 
746 1 0.41 70.00 17.6593 1.5010 0 
747 1 0.51 70.00 18.8367 5.4572 0 
748 1 0.44 70.00 20.8226 2.1570 0 
749 1 0.46 70.00 0.8129 5.2960 0 
750 1 0.46 70.00 24.9235 1.0154 0 
751 1 0.46 70.00 14.0407 3.3365 0 
752 1 0.48 70.00 6.1348 3.4806 0 
753 1 0.44 70.00 12.7275 4.1862 0 
754 1 0.44 70.00 4.9440 2.9111 0 
755 1 0.51 70.00 25.3082 1.0235 0 
756 1 0.47 70.00 2.7366 1.7965 0 
757 1 0.50 70.00 0.7626 6.4295 0 
758 1 0.44 70.00 1.9225 5.4701 0 
759 1 0.46 70.00 19.1199 2.0564 0 
760 1 0.46 70.00 2.9134 6.1592 0 
761 1 0.45 70.00 17.2386 1.8826 0 
762 1 0.47 70.00 19.5435 4.3130 0 
763 1 0.48 70.00 6.8280 4.0539 0 
764 1 0.44 70.00 23.0919 1.4347 0 
765 1 0.45 70.00 19.0971 2.8634 0 
766 1 0.44 70.00 12.8012 3.4420 0 
767 1 0.48 70.00 11.3401 3.1638 0 
768 1 0.47 70.00 16.9313 5.2481 0 
769 1 0.50 70.00 14.6030 3.6273 0 
770 1 0.46 70.00 12.7280 0.6220 0 
771 1 0.47 70.00 19.6217 4.6670 0 
772 1 0.50 70.00 24.9287 0.6006 0 
773 1 0.45 70.00 8.6675 2.1155 0 
774 1 0.50 70.00 4.4017 3.0933 0 
775 1 0.46 70.00 18.7723 3.1500 0 
776 1 0.49 70.00 2.9341 1.7284 0 
777 1 0.51 70.00 11.5849 1.5529 0 
778 1 0.47 70.00 15.3746 1.8045 0 
779 1 0.47 70.00 4.6646 4.8233 0 
780 1 0.48 70.00 27.7932 5.0712 0 
781 1 0.51 70.00 18.7115 2.4902 0 
782 1 0.47 70.00 3.0987 2.7932 0 
783 1 0.54 70.00 4.1367 0.5499 0 
784 1 0.52 70.00 6.0505 4.7839 0 
785 1 0.46 70.00 21.5558 3.4941 0 
786 1 0.43 70.00 2.4773 1.4673 0 
787 1 0.46 70.00 7.4617 2.0700 0 
788 1 0.48 70.00 19.9337 4.1176 0 
789 1 0.50 70.00 5.0604 3.1063 0 
790 1 0.39 70.00 1.3329 3.1328 0 
791 1 0.47 70.00 26.9228 0.6087 0 
792 1 0.52 70.00 13.1849 5.8550 0 
793 1 0.44 70.00 21.8964 5.1847 0 
794 1 0.46 70.00 25.5343 0.6421 0 
795 1 0.53 70.00 10.0448 0.6123 0 
796 1 0.44 70.00 15.6104 5.7982 0 
797 1 0.49 70.00 12.9912 6.0500 0 
798 1 0.48 70.00 4.1453 5.3969 0 
799 1 0.45 70.00 2.4869 2.3022 0 
800 1 0.53 70.00 6.3904 4.5274 0 
801 1 0.49 70.00 27.2808 4.7711 0 
802 1 0.49 70.00 14.6437 4.9145 0 
803 1 0.46 70.00 3.5333 3.9740 0 
804 1 0.50 70.00 3.3643 2.7123 0 
805 1 0.48 70.00 17.4618 5.6669 0 
806 1 0.48 70.00 11.9042 5.9735 0 
807 1 0.52 70.00 1.4507 5.4375 0 
808 1 0.47 70.00 20.9962 5.1861 0 
809 1 0.46 70.00 25.4368 6.4826 0 
810 1 0.51 70.00 13.4646 3.7833 0 
811 1 0.50 70.00 9.9066 1.0599 0 
812 1 0.48 70.00 8.9830 0.5247 0 
813 1 0.50 70.00 22.4655 0.6198 0 
814 1 0.50 70.00 5.3858 6.6066 0 
815 1 0.43 70.00 17.2666 2.3413 0 
816 1 0.46 70.00 21.5598 2.0491 0 
817 1 0.49 70.00 13.6169 0.7234 0 
818 1 0.43 70.00 16.1158 3.8246 0 
819 1 0.50 70.00 13.3741 2.6235 0 
820 1 0.45 70.00 10.9392 6.5650 0 
821 1 0.43 70.00 15.9129 4.3400 0 
822 1 0.43 70.00 4.5055 6.1001 0 
823 1 0.48 70.00 17.1644 3.3336 0 
824 1 0.46 70.00 17.1255 3.7110 0 
825 1 0.42 70.00 12.6034 3.3018 0 
826 1 0.51 70.00 15.8288 5.0092 0 
827 1 0.48 70.00 14.7914 3.5542 0 
828 1 0.49 70.00 22.4796 4.7105 0 
829 1 0.47 70.00 27.3781 1.5298 0 
830 1 0.49 70.00 6.4607 6.7020 0 
831 1 0.44 70.00 8.2850 2.8177 0 
832 1 0.47 70.00 12.4001 6.1454 0 
833 1 0.49 70.00 6.5225 1.6378 0 
834 1 0.46 70.00 5.8717 4.1195 0 
835 1 0.46 70.00 25.0258 5.8101 0 
836 1 0.48 70.00 11.0993 2.1038 0 
837 1 0.45 70.00 26.7918 6.4199 0 
838 1 0.53 70.00 21.2580 1.5135 0 
839 1 0.44 70.00 25.7889 1.8751 0 
840 1 0.55 70.00 5.2605 1.1804 0 
841 1 0.50 70.00 6.6934 1.0742 0 
842 1 0.50 70.00 9.8774 4.4224 0 
843 1 0.53 70.00 10.1045 4.0177 0 
844 1 0.46 70.00 18.1958 5.4468 0 
845 1 0.48 70.00 24.4482 6.7756 0 
846 1 0.45 70.00 25.9240 2.6058 0 
847 1 0.49 70.00 5.5878 3.1901 0 
848 1 0.42 70.00 7.5646 3.8535 0 
849 1 0.48 70.00 11.3466 5.0403 0 
850 1 0.48 70.00 6.8107 6.0081 0 
851 1 0.48 70.00 10.3882 6.7524 0 
852 1 0.47 70.00 13.4455 4.9052 0 
853 1 0.50 70.00 10.0881 1.5703 0 
854 1 0.40 70.00 7.5432 6.4100 0 
855 1 0.48 70.00 23.3595 0.7191 0 
856 1 0.46 70.00 5.9647 5.5587 0 
857 1 0.48 70.00 2.2206 5.4219 0 
858 1 0.49 70.00 4.5764 1.0917 0 
859 1 0.47 70.00 17.0262 6.1470 0 
860 1 0.43 70.00 27.7450 0.7342 0 
861 1 0.50 70.00 3.8237 5.6828 0 
862 1 0.43 70.00 22.2580 6.3363 0 
863 1 0.44 70.00 13.9564 4.0940 0 
864 1 0.52 70.00 13.5224 3.1902 0 
865 1 0.48 70.00 6.1150 1.7894 0 