ITEM: TIMESTEP
0
ITEM: NUMBER OF ATOMS
1848
ITEM: BOX BOUNDS pp pp pp
0.0000000000000000e+00 2.8000000000000000e+01
0.0000000000000000e+00 2.2000000000000000e+01
-1.0000000000000000e+00 1.0000000000000000e+00
ITEM: ATOMS x y vx vy 
4.099 7.0058 0.146148 0.0260571 
2.723 11.8962 -0.131828 -0.00284099 
7.0689 6.7968 -0.157446 -0.0517934 
13.3762 1.8495 0.0989975 0.0896491 
11.301 14.2763 0.155779 -0.0584273 
0.9891 12.5591 -0.0712361 -0.0999445 
5.2388 5.9717 0.0764607 -0.000594192 
10.7426 13.3744 0.260201 -0.0548697 
13.184 7.0694 0.079814 0.0155445 
1.7898 12.3863 -0.0600765 0.0743227 
11.1839 1.6455 0.00166344 0.0717118 
10.7804 12.3585 0.0419782 -0.135749 
1.8904 7.0496 0.0339701 -0.0763863 
1.6334 12.2294 0.0684196 0.0318168 
9.8609 15.0306 -0.0894168 0.0286746 
5.9244 4.177 0.101382 -0.19846 
13.361 10.6191 0.0156089 0.154153 
12.667 15.8454 -0.0438268 -0.118718 
4.7451 15.5323 -0.0145569 0.344256 
2.0805 15.0952 0.0767411 0.171354 
3.1861 11.8642 0.0108872 0.146312 
12.9944 14.9228 0.109678 -0.0769172 
6.7185 18.0216 -0.0869954 0.26532 
6.6373 11.606 -0.0912792 -0.030191 
7.4594 12.207 -0.228638 0.0664103 
5.1612 8.3666 -0.034776 0.141939 
4.3389 8.2075 0.034531 -0.0690233 
8.8794 4.8628 0.224677 -0.152392 
5.5793 13.5297 -0.0720736 0.198626 
4.6066 6.1514 0.188889 -0.0471493 
12.8603 16.8011 0.056554 0.0684194 
12.6941 17.1052 0.0741726 -0.355211 
11.9037 20.0144 0.191663 -0.0982378 
12.5145 12.2188 -0.0380985 -0.272696 
2.288 8.3308 0.0222969 0.117594 
0.9851 12.018 -0.147204 -0.109215 
3.1386 8.4159 -0.155408 0.201049 
10.1297 21.6161 0.231293 0.13197 
13.7051 1.9618 -0.184807 0.16743 
1.1053 19.3292 0.0900577 -0.188923 
11.3392 10.4306 -0.1035 -0.00148343 
6.6679 14.7972 0.0216002 0.0593817 
13.7296 6.4272 -0.0644992 -0.0640236 
10.3549 8.8047 0.082939 0.0133436 
4.4421 9.1912 0.020123 0.192098 
13.9919 8.3644 -0.222872 -0.14635 
11.1297 17.5293 -0.103777 -0.0307961 
11.1898 9.8137 0.0854206 -0.230088 
2.2015 5.5428 -0.0916522 0.216165 
6.3174 13.135 0.0347838 -0.0710403 
3.5727 8.5744 -0.163587 -0.0357591 
8.4465 3.3228 -0.183338 0.0240185 
5.4227 10.354 -0.013234 0.0538943 
10.4642 17.0097 0.270799 -0.0845489 
8.6508 10.3091 0.179379 0.0971016 
12.2317 15.2486 0.232584 -0.0306139 
12.7739 21.1182 -0.00609811 -0.0515653 
9.3339 12.6783 -0.115801 0.117125 
12.74 18.3865 -0.012446 -0.169998 
3.9097 4.3777 0.149777 0.0502756 
12.8216 3.8126 -0.134232 0.0649469 
0.8807 4.5614 0.131135 -0.280109 
1.0556 17.8865 -0.274005 -1.11268e-06 
8.2557 7.1137 0.0316282 -0.0553074 
11.4929 1.743 0.0175497 0.109029 
12.624 4.3149 0.157149 0.121599 
13.4578 3.2592 0.00422253 -0.107609 
3.7424 8.9536 0.127549 0.248486 
10.1725 13.167 -0.124762 0.133922 
7.0992 14.132 0.169362 -0.190784 
0.8409 3.7033 0.104818 -0.0321769 
9.5694 2.7861 0.0264399 0.0101116 
8.5248 19.4208 -0.0160828 -0.216592 
6.4657 7.7481 -0.136727 -0.0837109 
11.3291 16.9746 -0.0269514 0.0215168 
8.6424 13.6638 -0.15948 -0.0966062 
8.8839 5.6671 0.329638 0.0103137 
10.6757 12.1333 -0.201067 0.103099 
9.9749 4.6961 -0.183921 0.212902 
12.7515 14.5156 -0.120249 0.210264 
12.7663 2.6977 -0.0304817 0.123717 
11.6183 10.957 -0.0498308 0.184116 
2.1756 17.492 0.0117541 0.144145 
2.7794 9.4045 -0.4785 0.121416 
13.1743 13.8664 -0.255346 -0.0520437 
2.7771 7.3468 -0.17991 0.0864356 
11.6906 21.6485 -0.0109359 0.219398 
9.8145 4.4063 0.0193748 -0.09838 
3.4002 7.6967 -0.118981 0.0205953 
4.5168 13.2464 -0.100855 0.0390372 
9.3712 2.9357 -0.0577359 -0.0136779 
1.2494 2.1919 -0.0108397 -0.286619 
8.7508 14.9137 -0.16699 -0.135881 
1.2806 13.1259 0.0137329 0.0942734 
10.3251 7.9546 -0.0118825 0.0168345 
5.9018 11.7867 0.161315 0.0554686 
10.5827 15.8498 -0.11336 5.88778e-05 
9.9869 20.8163 -0.0529322 -0.0550027 
10.3314 14.1076 -0.171575 -0.22694 
6.8217 14.3063 0.252445 -0.0176128 
7.6057 13.843 0.154156 0.0611495 
5.5022 5.2916 0.15957 0.0567306 
10.6193 4.6586 -0.0234393 0.159111 
4.4013 21.0818 0.102623 -0.0909607 
7.8874 20.1938 -0.0973813 -0.00704591 
2.3767 13.2028 0.237223 0.101496 
2.0609 5.3448 0.0276094 0.0249443 
13.8296 18.2792 -0.145854 -0.0147774 
5.2713 4.3397 -0.177397 0.117749 
8.3854 19.1412 0.0182464 -0.270109 
11.4585 7.6138 0.0379719 0.199265 
6.206 13.5773 0.1646 0.0414933 
3.3284 20.8721 0.0805411 -0.0330552 
12.4715 20.2808 0.173703 0.0412304 
12.9455 11.2836 0.00595898 -0.0380207 
9.7027 3.4461 -0.0617596 -0.169405 
6.4761 9.8813 0.0472637 -0.126072 
8.3383 11.9265 -0.0472176 -0.228693 
9.1912 1.4906 0.138024 0.0382113 
10.5243 18.4886 -0.242729 -0.254791 
6.2283 2.004 -0.257495 0.170593 
6.4648 0.8932 -0.098336 -0.418752 
8.185 7.409 -0.158371 -0.104797 
9.8127 13.0963 0.046044 0.354651 
9.1074 8.5103 -0.106832 -0.0851198 
3.6172 4.8338 -0.0206067 0.0893424 
9.8468 8.5195 -0.109412 0.0892152 
4.8622 7.0976 -0.156973 -8.93063e-05 
2.8862 17.2836 -0.0128832 -0.0550726 
6.8395 17.756 0.0556797 -0.166365 
0.5861 15.4444 0.216315 0.116135 
1.3015 11.7005 -0.105853 0.010395 
13.4435 8.5616 0.0954934 -0.0340778 
6.5662 8.7705 -0.0870403 0.0728196 
12.7927 0.7576 -0.218506 -0.126282 
2.9911 19.2377 0.025522 0.0634344 
13.0021 3.6048 0.0214919 0.120921 
2.1683 16.414 0.0938621 0.0712493 
12.5975 13.5541 0.13037 0.00776683 
11.2871 12.2908 0.256071 0.185518 
7.4723 8.5184 0.193197 -0.0978886 
6.0887 19.8661 0.00221975 0.0549159 
1.0754 14.6894 0.0386886 0.0123775 
12.4086 10.345 -0.108573 0.0777673 
5.2913 2.9704 0.0229666 -0.0889749 
10.4797 0.8361 -0.0282799 0.150076 
6.69 16.9584 -0.0372007 0.25929 
13.4865 6.325 0.0275979 0.0514341 
5.8856 2.1791 0.00294827 0.0702986 
3.9796 6.659 -0.00305874 -0.180478 
1.6277 11.3223 -0.0262304 -0.063866 
5.0418 14.9866 0.0178093 -0.131807 
6.9059 11.7093 -0.00519471 -0.0919379 
10.3241 7.1595 -0.0858627 -0.0410783 
11.3084 8.4697 0.140986 -0.0858664 
5.0504 8.7777 -0.00848537 0.00839742 
5.4968 5.5505 0.0761599 0.106884 
3.8615 18.1339 -0.101732 -0.1681 
7.5243 7.8994 -0.00262452 -0.190445 
11.9575 13.6402 0.217824 0.110562 
12.5546 5.1183 0.053618 -0.277966 
5.7269 7.3788 -0.158983 -0.0286473 
4.6321 8.9228 0.0644706 0.0849959 
6.9194 18.5943 0.0632238 -0.280154 
4.8691 8.9553 0.0904439 0.0678759 
13.8886 7.2266 0.0135649 -0.0587782 
8.6498 4.969 -0.0339799 -0.131568 
4.9424 8.2737 0.175154 -0.1976 
9.863 19.4845 0.087802 -0.0805888 
1.4427 15.5177 0.0529816 -0.21411 
3.6706 15.8881 -0.0323545 -0.0380452 
8.9248 19.4144 0.0788198 -0.0798882 
2.8146 18.2745 0.0757354 -0.0466975 
7.7625 2.0184 0.0754127 -0.031517 
8.8136 0.7771 0.0601924 -0.077719 
1.9426 1.3422 0.010252 -0.103023 
12.4789 17.1671 -0.141089 0.154546 
7.5081 3.8602 0.183885 0.274516 
2.7774 6.7266 -0.040373 -0.0258655 
4.1542 8.6771 -0.159964 -0.295589 
13.5426 6.6006 0.051508 -0.0615487 
2.2167 11.6373 0.147466 -0.0143723 
13.6289 13.6366 -0.0849403 -0.0251105 
8.3628 20.783 0.0399528 -0.0972795 
6.8279 13.657 0.218742 -0.0637749 
9.7616 13.9258 -0.172803 0.0200961 
8.5737 16.181 0.196775 0.0428239 
1.3827 2.3446 0.0945195 -0.0748796 
6.5168 16.6196 0.0542471 -0.0970648 
11.3658 1.5373 0.162789 0.167451 
12.1049 18.5338 0.042429 0.00313476 
1.6137 1.7093 0.0838207 -0.0528586 
9.6123 17.884 -0.0446012 0.191728 
0.752 9.3966 0.0114651 -0.0325413 
6.0345 10.7611 0.0933712 -0.302934 
0.8736 9.8682 0.00306795 -0.0549172 
11.1105 17.0501 0.15429 -0.0366567 
7.948 21.2586 -0.116904 0.217565 
8.5268 21.3433 0.0661087 0.144622 
7.7943 4.4147 -0.282648 -0.00663014 
2.3985 17.8004 -0.0765918 0.0419499 
5.8528 18.3815 0.0175753 0.128266 
6.2061 18.4446 0.196152 -0.15597 
7.0121 14.9543 -0.192783 -0.224644 
2.8968 21.2225 0.0558403 -0.00436644 
6.6723 2.6559 0.346216 -0.0970533 
9.5413 12.2344 0.00122315 -0.125588 
2.5422 16.2785 0.00998657 0.0718056 
10.1143 20.165 -0.0232066 0.0184585 
8.1149 10.2128 0.309229 0.0533684 
2.7296 14.4856 -0.0321902 0.0690956 
1.5463 0.8712 -0.105571 0.153573 
12.3874 3.8824 0.041776 -0.0328399 
3.3716 4.0746 -0.121316 0.309685 
2.6052 17.2381 0.0346356 -0.166063 
12.4647 0.7231 -0.143335 0.0208462 
13.1093 5.8643 0.115896 0.140629 
3.978 5.3051 0.145576 0.184564 
7.0334 17.3807 -0.16215 -0.104087 
2.4999 14.9093 0.0595855 -0.135074 
7.7191 14.8474 -0.0531403 -0.0194663 
1.4793 13.9534 0.258338 0.00612601 
5.9031 1.4624 0.231591 -0.0893851 
4.2655 21.4053 0.126727 -0.0102759 
12.3875 19.7033 0.0451078 -0.130958 
10.2381 8.3126 0.0406156 -0.199759 
5.8463 10.1212 0.17176 -0.13729 
13.812 4.9994 -0.0807011 -0.335272 
2.1223 7.8744 -0.150085 -0.0336115 
2.1072 2.1692 0.0789526 -0.0311169 
7.4082 4.9873 0.187102 -0.190754 
13.3616 8.9639 -0.143006 -0.036135 
6.2388 14.9449 -0.0531944 -0.0230897 
8.4867 20.957 0.298051 -0.00454018 
8.7221 8.8337 0.0561853 0.13043 
10.8475 10.7282 -0.204336 0.0582425 
12.7851 8.4402 0.0937727 -0.0629588 
12.9662 12.1792 0.220098 0.0642428 
13.2379 11.2216 0.269546 -0.21521 
6.6008 21.3223 0.234095 -0.0198109 
4.1681 19.9885 -0.240571 0.0514367 
1.4134 19.977 -0.189913 -0.272366 
3.3597 14.2681 -0.0600631 0.205195 
0.917 15.6236 0.110332 -0.206186 
0.8076 9.1408 0.268488 -0.0462511 
2.2081 8.0951 -0.0811123 0.0755408 
4.768 4.1546 -0.153506 -0.154756 
11.3399 19.4335 -0.00611169 0.0721188 
11.3571 3.3064 -0.185422 -0.190795 
2.7212 12.9373 -0.242732 0.111663 
9.055 21.1916 0.235257 0.0509339 
4.2353 2.6148 0.0871035 -0.224061 
2.6607 15.6726 -0.166475 0.0775253 
4.5161 15.7959 -0.0343033 0.111292 
0.8645 5.9811 -0.0140419 -0.170558 
3.2137 16.4357 0.0428599 -0.222357 
11.1665 11.6392 -0.0902517 0.0869941 
7.235 5.8168 -0.0160247 -0.0458096 
12.1336 14.7611 0.221425 -0.154808 
9.4006 14.6765 0.121241 -0.0465369 
13.4173 18.7846 -0.0693215 0.246213 
3.5846 12.6424 -0.176018 0.106371 
0.6218 15.7839 0.109618 -0.135723 
6.5102 6.5617 0.0699084 0.0295885 
10.7981 19.5168 0.0384838 -0.215845 
8.0929 13.3378 -0.327881 0.0612212 
13.0743 18.2872 -0.0270905 0.0217201 
9.1329 18.1886 -0.233672 -0.0034449 
10.9804 18.8362 0.0837889 0.025891 
9.4018 7.281 -0.0675929 0.0569339 
2.5519 20.0024 -0.00562514 0.174034 
2.4673 4.6967 -0.113871 -0.086701 
12.272 1.914 -0.112092 -0.240867 
3.8678 11.5697 0.136513 0.144987 
8.1681 20.8522 0.0553804 -0.281008 
13.9924 5.2885 -0.128817 0.128758 
2.8783 1.295 0.0669209 -0.0316616 
12.5648 9.612 -0.161198 -0.120271 
2.9776 8.225 0.0135262 -0.31997 
2.3596 3.5229 -0.050794 -0.216524 
3.8948 8.5242 0.0401859 0.104596 
10.7791 6.9384 0.0128264 -0.170787 
13.0348 7.3572 -0.0275311 0.0266019 
12.7124 15.3412 0.133554 0.118717 
12.0811 12.1596 0.0197176 -0.0990638 
6.1577 8.3483 0.194582 0.0415713 
2.6756 6.9139 -0.105606 -0.0993659 
12.4178 4.6658 0.203418 -0.102584 
12.6532 19.2491 -0.0908171 -0.132446 
6.4847 7.3127 -0.0242589 -0.0145044 
7.705 18.0287 0.118258 0.0432943 
5.4739 4.1865 -0.0201763 -0.0832767 
3.888 11.8941 0.115454 0.189596 
8.4775 10.7013 0.0745417 -0.101204 
3.3217 20.0317 -0.141261 0.0443183 
3.9047 4.9938 -0.049214 0.124998 
7.2113 19.2006 0.0523521 -0.0915046 
10.131 9.8593 -0.0960297 0.0223024 
6.3404 16.9357 0.163261 0.0990167 
11.9635 2.5847 0.0146749 -0.0606654 
3.1329 1.248 -0.0447247 0.0250401 
9.2876 11.4814 0.200473 0.195493 
10.4625 3.3505 -0.0503791 0.0274941 
0.6061 5.6183 0.038228 0.16795 
2.5888 5.8232 -0.298085 0.124913 
10.4183 2.0094 0.0201961 -0.0991033 
2.4681 18.3475 -0.251505 0.0118662 
5.5151 20.7056 0.0995802 0.0181983 
8.3369 1.025 0.135746 0.00630951 
10.1057 4.0095 -0.0394074 0.181934 
2.864 7.8572 -0.0724682 -0.0865438 
10.4146 16.15 0.158283 -0.372156 
2.0549 15.873 -0.0904975 0.123132 
13.7853 7.0545 -0.0850111 -0.0950523 
1.4087 3.1934 -0.126811 0.139577 
13.9081 13.3789 0.0859701 -0.0310547 
10.8953 7.5862 0.10478 0.130191 
0.53 1.4103 -0.0775262 0.0180539 
10.2279 21.0177 -0.132945 -0.1923 
10.6536 18.6643 -0.171344 0.229501 
6.1588 5.3707 0.103476 -0.266813 
7.0115 19.5233 0.176326 -0.101995 
4.7293 9.5489 -0.0664743 -0.187767 
7.5756 10.9835 0.00899957 -0.078086 
4.7671 3.3167 -0.00307385 -0.130957 
13.484 14.7392 0.0769417 -0.216226 
0.964 13.711 -0.13787 -0.0783585 
0.6668 12.6609 0.0693927 0.0755104 
6.7519 4.0613 -0.014988 0.280724 
5.8956 6.0807 -0.341766 0.18251 
13.806 6.7104 0.097134 -0.0368298 
8.491 14.8058 -0.16118 -0.107821 
3.0623 16.6384 -0.119851 0.245674 
6.1304 14.677 0.319652 0.181078 
4.71 12.7525 0.0673327 -0.159782 
8.3003 0.7365 0.0712773 0.317152 
10.144 11.4283 -0.090297 -0.154252 
13.5302 16.421 0.108436 -0.341167 
11.0369 9.0562 -0.0582681 -0.00128453 
3.2035 18.9354 0.132449 0.039912 
3.4987 5.6893 -0.116392 -0.0704929 
5.9293 3.4684 0.0635485 0.296597 
10.5683 13.8454 0.0023815 -0.130582 
9.2582 19.432 0.0106111 0.124322 
10.4749 2.6958 0.00249357 0.0868516 
9.4292 16.2516 -0.0480508 0.166726 
13.8638 7.4762 -0.101526 0.0490175 
1.3577 10.9846 -0.160066 -0.0887738 
6.5035 5.6213 -0.0533514 0.0306972 
2.8248 13.4298 0.126475 0.192516 
7.1989 7.8013 0.138718 0.15159 
1.2624 14.0454 0.0614289 0.0756832 
3.1051 2.4741 0.122137 -0.0949311 
3.0414 2.1185 -0.200007 -0.132463 
8.5273 2.1731 0.0289892 -0.0862079 
13.3394 20.7607 0.163463 -0.0236971 
9.6748 18.3195 -0.0639991 -0.296504 
1.6912 4.0283 -0.369956 -0.132784 
6.5639 2.9325 0.183788 0.0809444 
7.9552 2.9345 0.0121296 -0.0668548 
7.3073 1.9652 0.129114 0.0761975 
7.1884 3.6596 0.223468 -0.212663 
12.5438 17.8078 -0.0185987 0.115181 
11.1127 2.5868 0.0216955 0.158752 
6.7754 1.996 -0.240648 -0.0687163 
8.9567 3.7953 0.115856 -0.304538 
8.3677 15.2386 -0.110387 -0.0241726 
11.0605 19.5632 -0.120578 -0.188806 
6.3378 17.5638 0.0825824 0.219771 
2.5485 10.082 -0.0231333 -0.0190332 
6.7138 10.8766 0.0621341 0.217099 
8.9631 6.8657 0.00823293 -0.161796 
10.7696 15.7613 0.041588 0.0463507 
1.8957 15.5665 -0.0622682 -0.159335 
11.156 13.0545 0.175344 -0.0135659 
5.5154 14.2424 0.0554963 -0.0827435 
10.2013 2.4051 0.162841 -0.0607456 
11.1673 18.7335 0.148756 0.0854108 
11.5182 2.7477 -0.0835774 -0.0119584 
8.9329 12.3743 0.205078 0.145013 
0.8519 21.7791 0.248797 -0.0991163 
12.4693 17.5076 0.0286571 0.123389 
12.4878 2.7254 -0.13533 0.171277 
7.5259 11.5711 0.136067 0.0712159 
5.1603 18.6574 0.202626 -0.00116595 
6.793 13.2992 -0.00514126 -0.107163 
12.4341 7.1516 -0.229827 0.0429171 
7.7994 12.7502 -0.0784666 -0.240248 
0.819 3.4413 0.0275621 0.0577791 
10.6417 19.122 -0.0329815 0.15645 
3.8227 3.6971 0.072867 0.276894 
1.5961 18.7015 -0.00258889 0.200577 
4.1953 9.1789 0.174231 -0.0187871 
6.3427 3.1654 -0.0332578 -0.285346 
13.9834 2.6333 -0.110624 0.164664 
5.48 17.7604 0.0306942 0.254111 
10.3209 5.2894 -0.080374 0.28818 
13.8111 12.6775 -0.132764 0.16121 
5.9388 16.2824 -0.0227556 0.228637 
10.2221 11.766 0.0245142 -0.0745687 
5.56 15.8563 0.070944 -0.0281633 
4.6043 2.6107 -0.100175 -0.0358499 
7.3 16.4795 0.0167482 -0.091323 
9.6166 13.1427 0.0469177 -0.0753806 
13.8153 5.5104 0.0808038 0.0424118 
7.6277 11.8207 0.0474423 0.291128 
3.5722 11.4717 0.0246028 -0.0680754 
0.9066 10.0742 0.130444 0.237454 
3.1299 3.4649 0.0928701 0.1986 
12.7626 5.9893 0.0977087 0.216135 
2.3754 9.3684 -0.0156023 0.030872 
13.0231 10.4831 0.295613 0.0447203 
2.8763 1.625 0.18535 -0.00529509 
2.7115 15.3758 0.0659566 -0.0296791 
12.4628 1.8345 0.0548984 0.197406 
6.2509 6.0863 -0.179077 -0.177373 
7.6824 10.6428 -0.0560432 -0.0675104 
0.5647 13.9492 0.183206 0.0349696 
12.4951 8.247 0.155912 -0.0222253 
4.0484 16.1699 -0.095397 -0.105093 
5.0601 2.8134 0.329569 -0.243023 
6.2027 20.2363 0.0650461 -0.049396 
4.0366 17.7714 0.066464 0.163108 
0.567 19.0369 -0.0973457 -0.0248867 
11.8985 2.2983 -0.0729604 0.235414 
11.8051 14.5895 0.0440494 0.168442 
5.2214 12.6089 0.127335 0.0260715 
5.9328 21.712 0.149306 -0.261699 
7.0853 7.1606 -0.0804252 -0.0530028 
13.1141 4.5994 -0.0537631 -0.0234782 
4.6369 13.6957 0.0120699 -0.0295432 
2.583 11.0886 -0.233266 0.0863673 
1.3231 18.0487 0.110075 0.0315948 
13.694 21.3246 -0.184013 -0.157895 
4.6391 19.2302 0.136429 0.0878827 
5.3159 3.2194 -0.0524882 0.202165 
2.5146 8.7774 -0.0255035 0.165814 
11.6117 5.7957 -0.0554654 -0.236053 
9.1802 14.6941 -0.304436 -0.200331 
5.8569 11.4502 -0.076062 0.066222 
1.8071 1.9532 0.230263 0.146974 
1.9787 19.5729 -0.292862 -0.0496996 
12.6817 20.1241 -0.063566 -0.218684 
2.8137 5.8182 -0.164125 0.131623 
3.5597 17.2487 0.0767817 0.0355169 
7.0841 13.9035 0.161792 -0.189981 
8.7822 9.7134 -0.157284 -0.00767746 
7.1969 6.1385 -0.172998 -0.0864132 
9.1318 10.0883 0.108817 -0.114868 
11.8658 12.6416 -0.0728377 0.0875533 
1.4104 7.5863 0.0737782 -0.0517089 
3.8578 20.2013 -0.135001 0.140278 
10.1037 15.412 0.118004 -0.145461 
2.2947 10.0858 -0.116377 -0.190767 
0.9591 16.9944 0.114936 -0.00929638 
13.1884 8.5346 0.285072 0.125295 
3.1391 13.2183 -0.0952141 0.302557 
4.3246 3.9138 0.0334802 0.179267 
0.6847 11.921 0.120118 -0.125757 
3.0542 14.5287 -0.433107 0.0848694 
7.9423 15.5513 -0.292026 0.0195771 
11.0242 21.7117 -0.040972 -0.204774 
3.1038 4.0599 -0.239793 -0.0784588 
12.7671 12.2699 0.0375074 -0.138722 
5.3103 14.5498 -0.0209852 -0.0933864 
11.732 7.8525 -0.0438752 -0.204257 
5.2557 1.2559 0.0121958 0.233243 
2.2571 5.9263 0.0295266 0.170996 
5.6564 13.3081 -0.0510856 -0.210415 
5.5281 1.5517 -0.386098 -0.186542 
10.3295 1.2608 -0.0761567 0.0138212 
0.8149 4.1987 0.167478 0.00376164 
1.9186 3.6822 0.0316143 -0.0628862 
8.126 4.0812 -0.0294165 -0.099042 
6.1371 21.1001 -0.0683677 -0.0400357 
7.5448 13.0267 0.0695836 0.0238292 
10.3807 16.704 -0.125125 0.209748 
4.9488 5.9498 0.104118 -0.18052 
10.1827 0.7173 0.0610525 -0.111687 
1.5911 5.2928 -0.0920583 -0.0434833 
3.5591 6.5213 0.249781 -0.106089 
1.143 11.2617 0.0349347 -0.121835 
1.6739 5.8459 0.194693 -0.221415 
13.8763 16.7991 0.138117 0.206025 
2.1543 15.3639 0.106826 0.0711141 
5.0227 18.1873 -0.149753 0.0344053 
11.7801 13.1073 -0.0668447 -0.272608 
7.6825 9.9548 0.0393401 -0.0128049 
10.7968 14.0165 0.0907975 -0.0364233 
4.5441 9.7988 -0.223985 -0.128199 
2.7072 18.9285 -0.13834 0.228946 
10.7013 12.8536 -0.245764 -0.0737005 
1.4373 4.1541 0.174689 0.0167316 
6.1505 0.9513 0.0575531 -0.0118826 
8.5815 9.8257 -0.246766 0.121346 
1.6161 4.6442 0.202545 0.0830042 
11.7439 10.6884 -0.247396 -0.0961609 
2.7513 19.3996 0.136965 -0.0694188 
6.213 14.4279 0.0939418 -0.0639225 
12.9888 5.4829 -0.10359 0.174426 
11.2779 20.7939 0.0152107 0.19256 
11.6259 16.1177 -0.082972 0.224633 
6.0747 4.3485 -0.0573795 0.117802 
5.4716 18.7011 0.0464524 0.0245178 
11.0621 12.327 0.0447584 0.100662 
4.8475 13.6895 0.0352959 -0.00841216 
3.2451 2.9369 0.0165066 -0.230012 
3.991 2.6389 0.04208 0.129324 
8.6521 18.8219 -0.0757604 -0.0248526 
13.3607 7.7534 -0.0665814 -0.18367 
1.7637 21.1692 -0.113128 0.0717643 
11.8396 20.2735 -0.226215 0.038925 
6.9728 1.4566 -0.00599981 0.142807 
4.9779 10.0817 -0.153709 0.00975796 
10.618 20.7493 0.0352152 -0.152797 
8.4475 18.8643 0.126926 -0.164706 
13.4577 5.384 -0.255219 0.0548288 
12.9716 13.5368 0.326389 -0.215984 
11.5427 13.7133 -0.0263696 -0.118711 
5.3164 13.1544 0.109183 0.0616302 
9.8519 11.0627 -0.238315 0.0636555 
9.1493 2.9048 0.0482211 0.078079 
11.9403 1.7557 0.0853859 0.104209 
13.9322 1.8386 -0.0372832 -0.0533903 
2.6266 4.1456 -0.0503708 0.114255 
7.9272 3.2791 -0.0485377 0.188256 
1.2095 10.2082 -0.18379 0.154523 
6.3523 14.2094 0.0426714 -0.107166 
4.839 7.9575 0.049911 -0.196568 
12.9924 1.6506 -0.329208 -0.191682 
6.1558 20.8329 0.0681373 0.00357191 
8.9749 3.1808 0.0535677 0.179337 
6.422 13.4415 0.157243 -0.260328 
5.3751 9.0788 -0.127369 0.014859 
5.6113 8.8162 -0.193431 0.0745788 
12.9419 13.8246 -0.110577 0.0537233 
7.7862 20.3871 -0.0458702 0.126599 
8.4485 2.7022 -0.152688 0.069031 
2.116 19.1209 -0.0567645 -0.155263 
9.5626 2.3794 -0.133618 -0.169013 
1.0439 12.3557 -0.226424 0.104291 
13.7708 13.921 -0.100095 -0.106777 
5.5965 3.8661 0.0400805 -0.0495223 
7.0589 5.2952 0.0278799 -0.200416 
9.3951 18.4792 0.0373018 0.0688136 
0.7566 7.4543 -0.0542237 -0.00531449 
13.027 9.4646 0.085517 0.0762944 
6.8328 12.791 0.196479 -0.202501 
6.1297 18.8083 0.165527 -0.157818 
11.9749 18.2599 -0.0243247 0.169911 
10.6333 3.7661 0.0570331 -0.40812 
5.3695 11.2701 0.108014 0.266947 
10.3887 9.6175 0.0950725 0.113267 
6.9842 19.1749 -0.00244864 -0.102068 
8.953 11.7106 -0.0950169 -0.0530964 
1.7813 19.9092 0.182374 0.303882 
8.8085 15.6849 -0.160419 -0.103738 
10.4838 17.7448 -0.310185 0.0445113 
11.9679 16.8374 0.117575 -0.186191 
9.6941 10.041 -0.0845491 0.179575 
12.1191 7.3086 -0.133263 0.00917956 
6.2447 11.8454 -0.0545514 -0.159862 
7.1648 6.4533 0.0421202 -0.0257033 
3.7462 17.363 0.185607 -0.0459638 
3.5501 3.8985 -0.273214 -0.0252244 
1.1159 0.999 0.14698 0.0381691 
3.2951 7.2975 -0.140796 0.266295 
8.7861 21.0399 -0.0112623 -0.000456861 
5.8727 0.6685 -0.198233 -0.0485031 
11.5183 11.5721 0.0757809 -0.0810661 
5.0327 12.154 -0.068759 -0.116246 
8.2281 15.9502 -0.11746 -0.225774 
2.5186 0.5052 -0.226774 -0.0926211 
11.5772 4.1333 -0.0286312 -0.205861 
6.3925 17.1531 -0.0625862 0.30581 
7.7968 9.199 0.256262 -0.26833 
1.248 4.2283 -0.120119 -0.20998 
2.3849 18.7558 0.050693 -0.146545 
4.2102 7.5774 0.039586 -0.127056 
0.5212 18.6702 -0.219863 -0.0476574 
11.3054 15.3318 0.0687051 -0.0713535 
1.8372 21.5467 -0.197495 -0.0416366 
9.3436 19.1932 0.17781 -0.112552 
11.8801 11.328 -0.00392786 -0.183015 
10.4926 14.709 -0.284111 -0.0944176 
11.817 14.8399 0.209537 0.066316 
11.1476 2.881 -0.0428503 0.242726 
7.6234 3.6165 0.0796897 0.117213 
12.6775 9.0767 0.151324 0.0845791 
7.9667 11.0221 -0.0324745 -0.136512 
13.1331 11.8248 -0.0320109 0.0696727 
11.1939 2.3379 0.0674813 0.317973 
0.9744 15.2033 -0.166884 -0.00591492 
3.8299 16.0348 -0.0250261 -0.166804 
11.4038 16.5526 0.147789 -0.166134 
4.3703 3.5121 -0.258262 -0.0806247 
9.8909 19.94 0.102022 -0.117691 
2.1045 4.9232 0.0195625 -0.214967 
5.0098 4.4318 0.0639949 -0.267553 
4.506 8.0411 0.240452 -0.0526447 
8.9835 16.9158 -0.0461949 -0.133307 
13.3442 9.2909 0.0258445 -0.155327 
4.4782 18.1921 0.0897128 0.16859 
5.7908 8.0282 0.0169358 -0.0402946 
4.6741 3.8078 -0.200632 0.0109834 
12.3201 11.962 0.187528 0.0203101 
4.271 18.0403 0.138961 -0.160945 
11.9785 6.0641 0.164381 0.203508 
11.0764 12.7469 -0.0534676 -0.00644536 
8.9182 6.5493 -0.246493 0.0844133 
3.8733 16.8121 -0.323919 -0.202386 
9.3255 21.041 -0.338799 0.0984594 
9.8651 15.946 -0.13505 0.0692305 
1.4455 6.5147 0.110407 -0.0348644 
3.895 21.2868 -0.1256 -0.0172955 
6.81 3.3375 -0.16132 0.0139071 
1.6703 10.6771 -0.0199668 -0.042945 
11.7562 6.2629 -0.0328094 0.211427 
3.3596 20.2605 -0.174026 0.0416795 
5.5258 10.8185 0.162751 0.0592764 
10.9157 15.1863 -0.0352454 -0.0536579 
13.57 1.7518 0.104328 0.097002 
12.0296 17.6925 -0.146724 0.000951218 
4.659 11.6025 0.32844 -0.0766869 
13.1235 6.6858 -0.000964614 -0.0287789 
3.6548 17.684 0.196808 0.0379276 
1.6859 19.2647 -0.0376771 0.265195 
5.1487 10.9672 0.0306667 0.243071 
9.498 19.8712 -0.0580945 0.0479511 
11.2906 10.062 0.346616 -0.0621746 
9.5664 20.3013 0.092611 -0.000945996 
6.3939 12.4284 0.156048 -0.017919 
8.8569 18.8388 -0.228939 -0.105084 
12.0821 6.5651 -0.273507 -0.0620829 
6.665 21.5617 0.00991691 0.159165 
6.5479 19.69 0.0109076 0.0210415 
6.3925 8.9267 -0.06615 0.0933916 
5.3805 4.9777 0.151817 -0.0106436 
11.9822 7.5477 0.0622947 0.0767513 
8.9283 20.8561 0.256323 -0.119013 
4.9746 9.8338 0.12038 0.114229 
7.5349 19.6394 -0.190169 0.0675244 
6.2568 6.3796 -0.0939881 0.228539 
4.1864 12.2474 -0.0623181 -0.0637764 
8.9644 9.4926 0.104001 -0.031835 
5.9488 17.6172 0.0178294 0.0493545 
9.2275 21.4841 0.114778 -0.148466 
11.1344 16.7697 0.259435 -0.0199511 
10.7994 20.0882 -0.0333994 0.0363977 
5.1773 20.6794 -0.0204869 -0.050452 
7.6707 12.5234 -0.0128264 -0.019456 
10.7252 3.9563 0.183481 0.166061 
10.1757 10.2279 -0.177328 -0.0764319 
13.1254 19.8425 0.084433 -0.0451627 
0.8297 14.033 0.0122624 -0.0559548 
6.2692 9.7847 0.0177182 0.0764486 
0.8535 7.9389 0.00337835 0.188881 
13.8567 5.9479 -0.349434 -0.0300323 
8.5278 8.7795 0.05265 -0.213615 
13.9704 0.79 -0.316503 0.0557909 
10.8458 16.1088 -0.0370843 0.0097487 
0.5457 9.5223 -0.15663 0.0771707 
12.3407 17.7827 -0.0899941 0.228498 
12.0134 18.8137 -0.0170093 -0.246211 
6.6697 18.322 0.204957 0.40556 
7.0893 2.6176 0.112618 0.0633445 
10.8554 18.4752 -0.0565173 0.259639 
13.4468 11.2892 -0.0440217 -0.00881107 
5.387 14.8666 0.0111144 0.00621773 
2.7951 17.7481 0.145051 -0.0183741 
4.9027 17.8797 0.105769 -0.0581054 
13.307 18.1278 -0.13603 -0.0307368 
8.9935 1.9786 -0.256907 -0.118675 
1.9309 13.5423 0.0257049 0.125504 
6.9526 5.1134 -0.104196 0.114375 
1.9252 0.7703 0.0480173 -0.0723686 
6.3824 3.6806 -0.181126 0.0172064 
10.4286 3.7771 -0.0699289 0.178946 
11.8803 18.4548 -0.00546443 -0.0525309 
9.4242 13.2335 -0.187207 -0.466454 
5.4498 2.0147 0.148602 0.176561 
12.2066 20.7305 -0.152986 -0.0601214 
13.5907 21.7952 -0.101752 0.25514 
4.0465 6.1505 -0.0300044 0.0203897 
6.4546 12.8277 0.00881115 -0.00898196 
10.401 18.8635 0.00468413 0.181794 
9.0666 13.8081 0.102024 -0.029376 
9.2375 4.9458 0.0895551 -0.116349 
4.3925 20.7697 0.0881257 -0.12276 
11.0197 9.2723 -0.131644 -0.155148 
3.1158 18.7106 0.00272321 -0.0403902 
6.2934 19.1133 -0.0857233 -0.225078 
7.482 17.9622 0.0132892 -0.0357945 
8.3816 5.9548 0.0298337 -0.173073 
3.4427 18.0273 0.124545 -0.0793152 
4.4785 17.9417 0.101243 -0.0357698 
4.6603 7.1374 0.147152 -0.0285587 
13.5867 9.2016 -0.515583 -0.0022513 
2.2431 20.0933 -0.274372 0.13896 
13.5528 8.8966 -0.128301 -0.043404 
12.1695 3.359 0.159946 -0.0890098 
2.4609 3.0126 -0.186918 0.104696 
12.8207 21.4446 -0.145146 -0.151878 
3.9516 16.462 0.0887342 0.133641 
9.4644 7.5373 -0.370748 -0.146882 
8.4552 7.6154 0.119056 0.0910147 
12.2987 7.9344 0.112791 0.142097 
1.3713 4.5257 -0.235891 -0.0261725 
3.2909 0.6735 0.0695299 0.124447 
3.9858 19.0297 -0.0458208 -0.210136 
10.5504 16.3712 -0.203518 -0.00228034 
12.504 4.0519 0.124044 0.0994455 
8.5164 0.7733 -0.088042 -0.0474732 
3.3531 10.0664 -0.127733 0.0520433 
4.5132 7.6852 -0.0421064 -0.22538 
5.9058 15.9095 0.144879 -0.136716 
0.9776 0.8237 -0.114669 -0.0613366 
1.4052 6.0608 -0.0216053 -0.104647 
10.8176 1.2933 0.024919 -0.0218164 
5.9491 20.4279 -0.143778 -0.130147 
13.2623 21.6131 0.0422532 -0.171374 
7.6832 4.2394 0.0836748 -0.0876016 
11.2027 4.7261 0.139714 0.030167 
0.5386 15.2324 -0.0404277 0.0683551 
12.6535 13.0996 -0.0671233 -0.154399 
1.3857 16.5513 -0.147425 -0.0141806 
3.574 20.0464 -0.140244 0.0471739 
10.7553 10.3905 -0.181545 -0.0891321 
7.2989 11.5378 -0.112126 0.275822 
5.9551 8.4729 0.0827538 0.00697686 
7.8947 1.855 0.135741 -0.0146351 
4.4959 14.3559 0.0124821 0.0698036 
12.6723 3.6076 0.0665826 0.0174762 
8.8134 4.1318 0.0949391 -0.0108616 
6.7859 2.4489 -0.210926 -0.0229581 
7.1152 0.6815 0.153906 0.0896892 
0.8918 1.0604 0.290982 0.207817 
0.7781 5.3285 -0.0891443 0.198018 
4.3557 15.2704 0.119656 0.00761114 
10.396 21.7929 0.0602464 0.0869064 
9.4379 18.1489 -0.128639 0.0565923 
9.92 20.3006 -0.0245117 0.20391 
6.2238 15.9722 0.395793 -0.17288 
11.0294 19.319 -0.0989448 -0.0424254 
4.7098 8.3357 -0.0146263 -0.0912983 
7.0719 21.5163 0.0694009 -0.167771 
4.2758 18.8992 -0.0452329 -0.239297 
1.5566 12.9916 0.0951776 0.144476 
8.1591 12.8434 0.115956 -0.145703 
11.6925 16.9955 -0.0576451 0.153251 
2.0103 2.6318 0.0196935 -0.00765362 
6.4406 21.1093 0.00827839 0.0765727 
11.1605 15.1845 -0.234345 -0.0489419 
0.8623 13.5327 -0.12085 0.00785039 
6.5078 11.3788 0.126895 0.0747954 
4.2075 21.7543 -0.0424553 0.0801852 
1.3771 11.3641 -0.00611397 -0.00682021 
11.3438 5.7476 0.181951 0.164374 
3.0985 20.9923 -0.0362186 0.232271 
13.388 17.133 0.161015 0.366289 
12.1424 13.5482 0.0171738 -0.106371 
3.041 16.0741 -0.0754442 0.101625 
13.6817 19.0069 0.170207 0.0880681 
4.7112 6.6433 0.00661932 -0.0655145 
3.785 2.3604 -0.0769958 -0.0740878 
5.0825 5.3097 0.101663 -0.0231857 
5.9475 9.4129 -0.014145 -0.00511735 
4.9409 20.4766 -0.174945 -0.154255 
11.7001 1.851 0.0996315 0.19074 
12.867 2.1695 -0.0488016 -0.156567 
8.3306 9.769 0.207108 0.211936 
12.0561 2.8839 0.111936 0.0432362 
6.6273 10.3404 -0.139763 -0.151394 
9.2449 0.7059 0.0960273 -0.121007 
1.5146 8.371 0.1375 0.0325527 
8.0556 2.074 0.098577 -0.155367 
6.9926 7.4981 0.0264078 -0.125205 
2.9984 21.478 0.00433473 -0.0618015 
1.7879 14.7514 -0.0814699 -0.123799 
0.6069 12.952 -0.0681495 0.0563111 
0.7748 13.111 0.0942054 -0.0537951 
1.4966 18.2391 0.152865 -0.0534082 
5.867 14.2212 0.0814482 -0.105028 
10.8873 11.8018 0.146755 0.138821 
9.7379 3.1651 0.0871969 0.139881 
13.0562 15.3247 0.0820565 -0.0937064 
9.1747 16.6596 0.130765 0.00320603 
5.8372 18.6751 -0.258596 -0.243666 
12.1958 16.3253 -0.0976479 -0.0836677 
9.8684 7.3402 0.141089 -0.00570857 
5.0132 16.7053 -0.162772 -0.137767 
2.5958 1.6163 -0.0315467 -0.0662572 
12.6992 6.946 -0.0942341 -0.136721 
3.3599 14.4858 -0.257895 0.0320374 
13.4415 3.727 0.348553 -0.172074 
7.6691 13.2539 0.163495 -0.112664 
0.7616 10.4215 0.13703 0.047085 
11.9516 7.8751 -0.0113539 -0.0461749 
13.4871 19.9997 0.0544562 -0.224272 
4.8266 12.0658 0.125831 0.0379076 
3.1035 10.1699 -0.0543218 0.0899377 
1.7 0.697 -0.0146793 -0.103067 
8.1791 11.2606 -0.0257392 0.168737 
7.2575 12.9729 -0.172831 0.0937454 
7.237 8.9201 0.154091 0.144633 
13.5778 12.9152 0.201249 0.0670054 
10.1746 13.5213 0.0634399 0.0808209 
1.1902 7.0503 -0.0532021 0.285164 
1.0211 9.3585 -0.099888 -0.118966 
6.7732 0.8225 0.0526168 0.143404 
7.3957 14.7598 -0.0634622 -0.100332 
2.8737 12.3554 -0.22738 0.265269 
6.5645 15.0959 -0.19859 -0.218291 
7.9654 5.3784 -0.14171 0.101949 
10.9565 18.0732 0.0867317 0.293471 
11.4532 19.8617 0.079968 0.126095 
11.0846 21.3597 0.0347147 0.0349624 
3.7833 5.3529 0.160618 0.0842991 
12.9258 11.4984 0.0376976 0.0289909 
10.7092 20.944 -0.0603518 0.220117 
1.6177 16.4667 -0.102464 -0.0632115 
11.3747 3.5159 0.00214777 -0.121623 
3.9535 17.507 -0.0157309 -0.0665798 
10.5904 16.0502 0.0335504 0.0549958 
1.292 9.6102 -0.0122124 -0.106885 
12.6284 21.5167 -0.184848 -0.20628 
13.07 15.757 0.220849 0.181226 
9.5953 8.6313 -0.155192 0.0728909 
9.2633 5.4556 0.179597 0.263392 
5.7663 21.3245 -0.0765261 -0.244418 
3.012 20.652 0.0159407 -0.0333691 
9.9844 6.4482 0.113978 0.105399 
8.6611 20.1453 -0.293926 0.15182 
0.7072 1.763 0.0143285 0.00105488 
12.4663 9.9073 -0.171595 0.0932794 
5.0772 5.5891 -0.299542 -0.334282 