ITEM: TIMESTEP
0
ITEM: NUMBER OF ATOMS
2464
ITEM: BOX BOUNDS pp pp pp
0.0000000000000000e+00 2.8000000000000000e+01
0.0000000000000000e+00 2.2000000000000000e+01
-1.0000000000000000e+00 1.0000000000000000e+00
ITEM: ATOMS x y vx vy 
12.1098 5.702 -0.120492 -0.0594288 
0.5372 12.4005 -0.124958 -0.123775 
11.8777 20.5597 0.0805201 -0.0655568 
9.9394 13.0516 -0.0223246 0.0487015 
4.1001 2.9666 0.245555 0.0302474 
7.0828 14.5163 -0.0388388 -0.0271366 
12.5318 11.2416 -0.0967201 0.134187 
4.46 19.2136 0.0308215 -0.0852633 
11.7592 9.6206 -0.207055 -0.329806 
10.3154 9.058 0.306301 0.260011 
1.2861 18.8444 -0.221104 0.154114 
10.3256 16.6357 0.0655486 -0.200018 
10.188 20.7703 0.0177648 0.0182992 
1.6929 15.7421 0.353131 0.0217495 
2.5116 3.9241 -0.0111242 0.186763 
8.2664 15.1361 0.245564 0.0811351 
12.4277 14.8199 0.373177 0.216243 
3.8853 19.8834 -0.182194 -0.0469114 
11.9788 13.2349 -0.0346018 0.175617 
1.614 2.3243 0.110204 -0.131261 
12.1795 9.2118 0.0416783 0.121092 
13.9514 6.344 0.196398 -0.115698 
8.9971 4.97 0.0163288 0.159091 
7.4861 15.5954 0.169544 0.12641 
10.3223 15.5433 0.152075 0.339275 
8.982 2.9462 0.135499 -0.0731282 
10.3977 2.7616 -0.0720639 0.127017 
0.8716 19.8177 -0.207643 -0.0219167 
11.3933 12.0654 0.072784 0.0519527 
12.7655 14.166 0.0649675 -0.0217487 
3.1473 14.2278 -0.0888304 -0.169585 
8.5813 9.2208 -0.107043 -0.143798 
2.5768 13.2964 -0.0488489 -0.0045075 
5.2479 21.2507 0.145928 0.0374106 
13.1302 6.3377 0.065297 0.0861529 
1.1472 14.1783 -0.193149 0.264608 
11.2691 7.3468 -0.058581 -0.0252022 
4.236 3.6955 0.0730184 0.0984332 
10.0983 16.2059 -0.111151 -0.0802835 
11.7063 2.1435 -0.246993 -0.121846 
5.055 21.4247 0.0623846 -0.00594868 
2.8263 14.6439 0.0384596 0.0603594 
11.3565 10.7115 -0.324969 0.0200334 
7.2397 1.7059 0.0815971 -0.0769832 
9.289 3.9281 0.0893716 0.0810099 
10.5528 18.7524 -0.0629522 0.174484 
10.3992 21.4315 -0.192369 -0.0291004 
2.1504 2.5239 -0.00317755 -0.0513158 
5.5848 5.1931 0.0740924 -0.158914 
13.4706 3.0637 -0.0825735 0.028284 
9.3214 12.4504 -0.0410078 -0.0327743 
13.9773 12.5391 0.109504 0.0763078 
12.9011 18.8885 -0.259876 0.0387463 
5.0506 7.788 -0.0202998 -0.104522 
6.6836 16.5188 0.231103 0.0528684 
5.7823 13.3725 0.276288 0.00534848 
13.7226 15.6399 -0.0747766 0.146942 
2.0901 16.8667 0.0156213 0.163754 
13.0624 15.2334 -0.0863343 -0.105114 
0.9448 10.2051 -0.181028 -0.041219 
7.8076 18.7832 0.0492755 -0.0716008 
4.9657 3.2101 0.0723255 0.066097 
1.8385 12.9658 0.0504433 -0.145231 
10.9639 3.2738 0.106965 0.209218 
2.4794 2.5239 0.00248332 0.0301352 
3.227 4.1141 0.0882802 -0.113138 
6.323 18.9244 -0.0749638 -0.119245 
7.7332 3.8666 -0.0587463 -0.155108 
3.0442 14.538 0.0469195 -0.30471 
9.1855 16.0316 0.115263 0.195086 
2.3577 21.3648 0.239478 0.0132096 
11.2667 15.0645 -0.0415625 0.0791372 
13.5146 4.8245 0.152762 -0.177351 
0.7894 20.1281 0.0230812 -0.164435 
10.036 21.6641 0.0546539 -0.115009 
8.8499 13.721 -0.0223881 -0.131123 
2.7075 21.5341 -0.0264612 -0.00252888 
3.3814 4.2551 0.223194 -0.0228424 
1.6641 16.1495 -0.0883926 0.188448 
1.6082 9.8986 0.132675 -0.0155501 
6.5547 8.5826 -0.00760098 -0.215394 
1.506 4.2669 0.182546 0.196379 
10.2733 1.6068 -0.201235 0.00789464 
7.2828 3.6964 0.267187 0.0461951 
11.0673 2.8582 0.079636 -0.217641 
9.7115 20.9353 -0.0980439 -0.0557165 
9.6271 13.4672 -0.0556906 -0.166582 
13.121 17.7485 -0.000241375 0.0202409 
0.8529 5.917 0.00714249 0.174538 
8.0896 16.0348 -0.126681 0.193482 
11.1398 1.4632 0.216513 -0.126566 
6.2633 7.0728 -0.120985 -0.117849 
4.7473 5.8356 0.00169269 0.0871412 
4.685 8.709 -0.0199807 0.117929 
2.5772 12.4569 -0.181868 -0.0366858 
12.1616 8.1114 0.146658 0.0519784 
12.4067 12.6076 -0.143016 -0.104651 
8.6641 5.3451 0.0994726 0.096794 
4.2957 9.9766 0.0679469 0.180896 
7.3086 17.6273 -0.102441 -0.00306959 
2.0365 12.7573 0.047899 -0.396658 
10.8419 11.0468 0.203169 0.067499 
12.7696 19.7976 -0.138455 0.453121 
3.3557 21.0834 0.06595 -0.0631031 
13.2129 18.1086 0.0185003 -0.0899974 
13.7122 16.307 -0.179513 0.13158 
6.1843 6.2135 0.112258 0.169557 
10.3275 5.3032 -0.152677 -0.0668645 
4.2383 16.364 0.166194 -0.0126936 
8.5018 8.5993 0.00762588 -0.175464 
10.2086 10.0315 -0.0787057 0.184738 
9.6324 5.0076 0.0267528 -0.364383 
12.3907 21.246 -0.205333 0.1484 
9.6976 12.7567 -0.199734 -0.182172 
4.0238 18.2675 -0.199818 0.0175533 
12.4727 2.9606 0.195382 -0.175496 
13.3598 17.2327 -0.0631544 0.127443 
9.5662 3.6163 -0.139825 0.020982 
3.0359 16.283 -0.0837981 0.192568 
3.4799 16.026 -0.000870756 0.20676 
8.5227 14.7094 -0.18715 0.17956 
13.0094 4.2913 -0.371871 0.192864 
7.4702 12.4173 -0.0892971 0.390894 
11.4653 7.2882 -0.103594 -0.0572683 
12.1306 4.0075 -0.0741166 0.220995 
7.4756 12.7215 0.0774645 0.134913 
9.8104 16.7811 -0.0276829 0.00544604 
10.5352 7.1962 -0.139008 0.222882 
6.0595 4.8057 0.0154569 -0.140357 
1.343 18.1792 0.0240395 0.111848 
10.4356 16.3769 0.164844 0.242562 
8.8571 13.942 0.302683 -0.0226924 
7.3295 1.3832 -0.0980561 -0.0953621 
1.9015 1.774 0.262776 0.176536 
12.3255 12.7937 0.028208 -0.0815815 
10.3638 7.3002 -0.157114 -0.0349735 
6.5391 14.6625 -0.169189 -0.14159 
4.9736 18.8239 -0.24413 -0.214569 
12.1026 2.8531 -0.113451 0.0584989 
2.3863 21.5922 -0.0612417 0.341469 
12.15 19.5389 -0.102949 -0.0813793 
1.2354 0.6361 0.217426 -0.182679 
3.8753 6.4795 -0.0233656 0.276728 
6.9002 15.6779 -0.181088 -0.00811293 
1.1384 6.8818 0.0330517 0.198537 
3.5843 5.4119 -0.0593952 0.202137 
8.4646 4.5392 -0.0874844 0.166058 
5.5189 1.3093 0.0927513 0.0553709 
0.9074 6.797 0.00910026 0.0942746 
7.4386 16.3833 0.0922475 0.0418631 
13.0192 7.3477 -0.037975 0.045793 
13.211 13.7388 0.0323475 -0.0516137 
10.814 15.3331 0.0411043 -0.0415623 
8.9205 9.1995 0.0587578 0.0737157 
11.5068 18.0041 0.0598916 -0.199473 
9.375 13.0265 -0.0232598 0.177047 
3.0699 7.4095 0.00739152 0.0504157 
4.0765 11.4634 0.169526 0.225392 
12.1824 13.8122 -0.0956633 -0.00662115 
11.2074 3.3102 -0.059653 0.261448 
4.0004 5.9143 -0.0461037 0.039629 
3.8843 8.4971 0.257603 -0.0770205 
3.5557 20.1238 -0.0295382 -0.45613 
1.2024 6.1941 -0.170687 -0.258334 
7.6194 9.0271 -0.125719 0.121373 
3.3834 6.627 -0.00642423 -0.036498 
6.0179 19.6628 0.205329 -0.0341359 
13.4105 2.3218 0.10209 0.170032 
13.2609 20.716 0.133589 0.0903912 
10.5346 6.7422 -0.0777727 0.00509178 
13.3158 16.8608 -0.156378 0.045686 
11.6487 5.5588 0.0889188 0.150854 
10.7605 3.1772 0.0265564 0.100952 
12.3858 9.8672 -0.0152657 0.24317 
2.7541 11.4209 0.0700429 -0.0644665 
4.6978 7.0126 -0.0496636 0.289675 
7.3114 11.8425 -0.15609 0.0749105 
11.184 0.9815 -0.151511 -0.0841741 
2.6426 2.312 -0.157209 0.00316794 
5.5363 12.5372 0.124794 0.0710531 
12.3665 21.7249 0.0357285 -0.0393335 
11.1402 21.7735 0.0503126 -0.115752 
8.6411 13.9325 0.184661 -0.0331269 
13.4813 16.7027 0.112499 -0.0813554 
6.6299 20.4621 0.0418585 -0.0430433 
3.2835 0.9242 -0.00865823 -0.0396244 
7.5397 2.413 0.103118 0.0112283 
5.901 1.36 -0.0716936 -0.0145706 
10.0438 13.5963 -0.0887441 0.0741919 
12.5825 7.1494 -0.138669 0.098789 
6.6214 3.8748 -0.156265 -0.00993118 
8.5896 12.7469 0.0518732 -0.108378 
8.1667 17.7916 0.107792 0.191391 
12.7207 15.001 -0.0872366 -0.0570267 
3.8506 21.1716 -0.203205 0.17249 
6.3993 6.7141 -0.182585 0.00368487 
1.2096 1.6309 0.0347394 -0.12897 
12.7205 8.7514 -0.0169388 -0.0787609 
3.6595 19.8264 0.261044 -0.0819556 
10.5556 19.6282 0.0253919 -0.219045 
13.9746 9.0655 0.107624 -0.184786 
1.2597 4.5183 0.100727 0.0896605 
2.5239 1.5134 -0.0196043 0.0191978 
6.6892 14.4078 0.304159 -0.0667192 
1.0456 17.7447 -0.0655844 0.14302 
0.5279 6.4471 0.211174 0.00681886 
7.3443 10.7972 0.203331 -0.0812796 
12.9514 18.1462 -0.141701 0.0476806 
9.0521 20.5713 0.107559 -0.0180196 
12.5575 7.7814 0.0225816 -0.0677951 
5.7114 8.2612 -0.0448339 -0.054068 
8.694 21.4597 0.0838576 0.274008 
10.0387 14.7718 0.0326054 -0.0883895 
0.6653 13.0928 0.106531 -0.172643 
12.4033 6.4633 0.110448 0.0751805 
11.5043 6.6868 -0.177296 -0.173914 
3.9744 10.8939 0.123296 0.0408275 
0.5484 7.4716 -0.112561 0.117922 
12.1503 21.5115 -0.0722408 0.105446 
10.2594 1.864 -0.101376 0.134723 
6.7424 17.4562 0.00603017 0.0305073 
5.1309 6.7919 0.139691 0.129823 
7.4815 13.6859 0.00443423 -0.200698 
13.2077 19.0939 -0.299142 0.0590834 
10.2366 14.8213 0.150273 -0.240566 
12.9896 3.1826 0.168243 -0.0617555 
12.5888 2.7416 0.0591827 0.145374 
1.0721 2.2083 0.0186616 0.503937 
12.6921 17.0363 0.233163 0.0922369 
5.3378 13.5256 -0.0205482 0.0870689 
7.4519 9.5624 0.0108498 -0.0683076 
10.9486 17.4628 0.17125 -0.112178 
10.9156 6.9462 0.193498 0.0102425 
4.243 12.054 -0.0330421 0.0651585 
13.2787 14.054 0.0177197 0.127175 
0.8511 2.5834 -0.159632 0.227786 
2.2897 15.9822 0.041596 -0.283754 
2.4483 4.1557 0.0773009 0.0477417 
1.6401 8.6208 -0.190254 -0.358108 
6.6641 15.4322 0.359916 0.182721 
12.6829 5.7498 -0.0575085 -0.0435598 
3.1623 19.9751 -0.0303189 0.0847289 
8.3988 5.6177 -0.0956783 -0.132955 
8.2911 4.7858 -0.0232046 0.11383 
2.1043 8.1537 0.0858592 -0.231568 
2.2917 11.596 0.106613 0.222188 
10.6737 9.697 -0.100763 0.150293 
2.7643 16.2203 -0.0694216 -0.0518751 
1.8934 10.9851 0.281563 0.155261 
11.5317 21.5748 -0.0212313 0.017513 
4.8513 8.3691 0.0964964 0.107733 
9.3347 1.8329 0.0998922 -0.130561 
8.4073 8.9423 -0.0111185 0.0374811 
6.6143 13.9628 -0.0746589 -0.148879 
7.5069 18.4626 0.026976 -0.0364437 
12.2356 18.0464 0.0105631 0.0112409 
9.3258 18.5323 0.0561327 0.133493 
7.7962 11.5355 0.0526857 0.103039 
11.2309 14.589 -0.0654938 -0.132232 
1.9483 3.1941 0.146808 -0.00809034 
0.9415 3.8097 0.112005 0.106109 
3.5117 8.3285 -0.0159686 0.0911114 
8.0993 9.162 0.121211 -0.0918662 
5.1408 4.6302 -0.240825 -0.0804043 
5.7355 1.6202 0.0920778 0.135021 
8.3344 9.4131 -0.0468392 -0.0707814 
4.5259 1.9301 0.0171395 0.236829 
5.875 13.1747 -0.0185975 0.168343 
6.4241 11.5708 0.0764499 0.015682 
5.0494 2.329 0.189169 -0.0874332 
2.4173 9.4194 -0.0305061 0.0922618 
1.336 20.4286 0.0392827 0.115639 
3.3733 10.0745 -0.00897463 -0.071706 
13.3214 1.4877 -0.0375908 -0.0650273 
9.8614 18.2078 -0.156217 0.247184 
5.3668 18.0846 0.0832412 0.0532033 
6.9697 17.4832 -0.296026 -0.0665248 
5.3794 21.7072 0.0563841 -0.00837341 
10.9147 3.6717 -0.123158 -0.335962 
2.995 15.5735 -0.174069 -0.0181358 
10.5947 21.7756 -0.146072 -0.203121 
4.5538 3.2095 0.106152 0.0988512 
13.5038 16.1591 0.0121983 -0.122109 
5.0325 11.1903 -0.134373 0.2249 
3.1792 6.6286 0.0590235 -0.117319 
0.593 21.7943 0.133188 0.258678 
8.2116 1.7279 -0.033905 -0.162024 
0.9523 6.4895 0.0272369 0.0607388 
0.5138 19.7048 0.049894 0.00963937 
12.4402 8.4834 0.0989081 0.166642 
12.9081 9.4002 0.00674824 -0.150112 
6.1954 12.1587 -0.124577 -0.000284366 
13.1524 3.5746 -0.18198 0.140394 
13.1121 4.6173 -0.041173 -0.151243 
6.0551 8.7629 0.161218 -0.0260594 
1.9201 20.2509 -0.0203599 0.244915 
11.1279 10.6832 -0.076461 0.0235207 
1.289 17.9125 -0.33778 0.117873 
3.6705 7.2583 0.0823728 -0.0450977 
8.8945 16.3824 0.0564024 -0.124876 
10.6579 11.477 -0.273396 0.119183 
0.7161 1.6449 -0.0986058 -0.0414689 
7.2271 17.0165 0.126029 -0.0887304 
2.9677 10.5004 -0.0156516 -0.00982364 
8.6377 4.0719 -0.205177 0.0215544 
6.8723 18.0625 -0.00572021 -0.147036 
11.838 7.8706 -0.131563 -0.0416746 
7.765 5.4478 0.192202 0.0958407 
8.2037 4.0031 0.0841782 0.0837271 
9.3155 2.8847 0.00577737 0.0025508 
10.3589 15.8347 -0.280773 -0.0148109 
1.9216 2.1349 0.168771 0.104454 
13.4201 12.8461 0.00527773 -0.239591 
11.9877 6.197 -0.0892838 -0.048752 
2.2204 15.7069 0.0036702 -0.058066 
5.7769 19.7723 0.137872 0.00629676 
3.6157 15.4889 0.0165143 -0.0445166 
11.8552 7.1083 0.0791718 0.0535679 
10.591 0.9767 -0.046449 -0.0309381 
1.6384 11.8188 0.0678072 -0.0529575 
2.0024 14.8581 0.133919 0.144962 
4.2676 0.5821 -0.103061 -0.164455 
3.3054 2.8468 0.0580383 -0.0473015 
8.656 18.7891 -0.116589 -0.128147 
10.1915 18.5861 0.0711526 -0.159431 
8.9615 11.6237 0.0787386 -0.196944 
10.5839 8.1961 0.0453639 -0.112123 
2.5678 2.9312 -0.192604 -0.0713259 
4.579 7.1929 0.0624475 0.227403 
11.7189 12.5904 -0.0727527 -0.272067 
5.0318 19.5316 -0.237966 -0.0278901 
0.9254 17.2606 0.126799 0.131992 
8.2617 19.4179 0.116409 -0.046163 
10.0137 13.8948 0.0230012 0.0254576 
11.0623 17.2024 0.0153573 -0.138878 
3.4668 4.6516 -0.0707679 -0.170444 
0.5658 19.9475 -0.247182 -0.0398245 
1.7529 14.0601 0.250835 0.312893 
11.3994 9.8249 0.00513756 0.18787 
7.8113 4.4322 -0.0178824 0.176646 
1.0759 20.4401 0.0901201 -0.0482811 
8.8146 19.4925 -0.0964208 -0.0858621 
13.2805 7.3202 -0.0436757 -0.121583 
6.7733 19.0828 -0.0174692 -0.231468 
7.043 7.6285 0.084343 -0.131213 
8.7808 5.1453 -0.159394 -0.33096 
13.656 18.1646 0.247164 -0.0205645 
8.9169 3.8527 -0.125663 0.289532 
12.4466 18.2926 -0.208236 -0.20983 
5.3233 1.7077 0.151468 0.00773955 
6.1186 11.0978 -0.346198 0.319076 
13.9983 18.0346 0.0813575 0.242574 
13.9059 5.8206 -0.142408 -0.0995414 
1.0229 20.6481 0.0757779 0.0233346 
5.96 3.577 0.0232015 0.0699981 
8.1086 9.6025 0.0494643 -0.156463 
2.4884 14.8742 -0.195672 -0.0730812 
10.1908 6.3026 -0.0233229 0.0780132 
2.5267 6.6335 -0.0165179 0.0837618 
2.4989 8.392 -0.070256 0.201807 
12.9527 0.6994 -0.120459 0.10514 
8.1369 13.8211 0.0257165 -0.230637 
1.8233 10.3233 0.00719663 0.0424323 
2.4814 1.2156 -0.229831 0.0696879 
9.0134 18.2768 0.0196465 0.0587671 
10.985 16.984 -0.0504267 0.0341102 
8.5517 7.9661 0.0338963 -0.0509897 
3.2638 8.4162 -0.125745 -0.228715 
11.112 11.8914 0.247539 0.0641137 
2.6373 9.1901 0.200744 0.0119197 
8.2809 21.616 -0.111972 -0.0105096 
2.936 17.9843 0.203694 0.0160903 
6.9913 8.4444 -0.131319 -0.112187 
6.6945 18.8707 -0.0154484 -0.11357 
11.5283 10.5181 -0.0739027 -0.14432 
4.342 11.8015 0.244593 -0.00987541 
0.6303 21.1888 0.0309702 0.113858 
6.6931 20.2544 -0.0386924 0.0649002 
13.5225 21.3432 0.0380963 -0.0536741 
1.789 21.7507 -0.131232 0.0361493 
8.6784 7.73 -0.205106 0.168973 
11.7254 18.2323 -0.0622742 -0.0536326 
8.9555 2.2347 0.0217597 0.0451222 
10.5178 13.862 -0.00960314 0.193081 
11.7107 3.7997 -0.106545 0.327919 
3.7621 5.1338 0.0845217 -0.030589 
13.3855 20.2824 -0.17449 -0.0520155 
3.0207 17.4869 -0.0867004 -0.1099 
12.6015 20.7079 0.0966828 0.0558912 
2.9856 1.485 -0.00973017 0.210825 
0.9201 13.374 0.0138624 0.17074 
9.1568 13.915 -0.091652 0.0482807 
11.5555 12.3039 0.0392153 -0.0436593 
2.1005 13.3875 0.131693 -0.00956201 
7.487 18.7281 -0.0277794 -0.0268048 
12.3765 2.4013 0.125055 -0.0815414 
2.5522 18.8425 -0.0810166 -0.0437696 
1.6606 3.6026 0.127942 -0.0831697 
5.9366 14.0016 0.0550353 0.0740298 
2.8036 13.4483 0.0230929 -0.00671574 
10.7877 18.1527 -0.23524 -0.00018803 
5.0507 17.8061 0.0360082 -0.174187 
10.9436 12.8857 0.0194825 0.11209 
5.5747 4.2667 -0.122765 -0.112556 
4.5665 15.2696 0.0580359 -0.138915 
12.5956 5.4039 0.0171529 -0.00266553 
11.7603 3.5601 0.157574 -0.0737792 
13.0706 6.0107 0.107374 -0.0133526 
8.4219 20.9153 0.0583636 0.0266504 
5.664 20.3519 -0.0499862 -0.212876 
4.9083 19.9066 0.0735777 -0.0222776 
13.7361 17.301 -0.124557 0.338399 
4.4805 2.1787 -0.0896175 -0.114307 
11.195 3.8777 0.137001 0.0468276 
6.4635 16.7781 -0.114103 -0.0219189 
13.3203 7.8621 0.0314861 -0.211762 
2.7665 0.9359 0.0140411 0.041114 
3.9628 3.6441 -0.00930639 -0.138332 
13.4795 10.1294 0.115793 -0.275028 
5.8247 12.7756 0.118113 0.159068 
8.109 6.7391 0.0524342 0.0237405 
11.5381 7.5952 0.0990725 0.0707359 
4.6168 16.3079 0.233515 -0.215643 
1.9335 2.5333 -0.0532358 0.100581 
9.27 16.6135 -0.172276 -0.101284 
11.4117 9.4188 0.195266 0.00680311 
6.1256 4.2211 -0.140572 -0.00369927 
1.3222 18.5527 0.0893722 0.0326083 
12.1208 2.4733 -0.0255131 -0.0315972 
13.9835 18.566 0.171765 -0.0646777 
12.5166 12.9677 0.185686 0.104612 
8.4344 21.1471 0.071082 -0.191406 
13.868 2.9298 -0.043941 -0.0155668 
5.875 7.7392 -0.106394 0.182259 
2.7015 17.1175 -0.0251142 0.0622842 
9.4618 19.3065 -0.217847 0.0409051 
2.9629 9.6732 -0.144951 0.0488778 
13.906 4.7447 -0.031047 -0.185523 
7.3155 19.2002 -0.047312 -0.286168 
12.4973 10.5531 -0.107487 0.129301 
10.68 13.1859 0.162099 0.0690125 
12.8236 20.458 -0.0846713 0.0179175 
9.9184 11.5005 0.00385591 -0.176153 
3.721 8.8208 0.0707215 -0.0589559 
11.6752 4.2859 0.129808 0.0133945 
4.7991 18.5951 -0.171113 0.0594615 
7.717 16.0906 0.0634805 -0.0315432 
3.8411 1.3412 0.199656 -0.0467205 
7.5729 3.0258 0.115836 -0.0372332 
2.6014 7.6365 0.178262 0.200122 
4.0441 13.1903 -0.0671628 -0.00512981 
4.4547 9.6658 0.0397411 0.0149306 
10.7755 13.6363 0.0366389 0.0523474 
13.5999 12.2498 0.129151 -0.0579457 
13.734 14.1421 -0.079299 0.214236 
2.425 10.6551 -0.304111 -0.202846 
1.7414 21.4004 0.152851 0.0210771 
2.8618 20.0435 -0.157532 0.026249 
13.7916 2.353 0.135469 0.102879 
1.4107 8.289 -0.0662234 0.0500568 
6.9689 2.9885 0.103572 0.135162 
13.1883 18.3302 0.273429 -0.10131 
3.0925 2.2705 -0.0821125 0.158572 
10.0896 9.2138 0.240613 0.0241991 
1.1432 16.5093 0.190133 -0.185457 
12.5388 6.1649 -0.127246 0.00821031 
12.5343 21.4784 -0.00102005 -0.235582 
12.0434 3.1235 0.110468 -0.0592791 
8.6883 13.1068 0.309933 0.0679125 
13.6408 7.412 -0.0814622 -0.202599 
13.9302 17.4615 -0.0131446 0.0465027 
9.5173 11.7609 0.067009 0.0926937 
8.4344 6.82 0.0165954 -0.120319 
11.7625 6.1067 -0.0271427 -0.0180881 
3.5662 14.8927 0.220328 -0.193851 
6.6086 17.784 -0.1027 -0.0799163 
7.6031 12.9728 -0.0907558 -0.0218228 
10.4764 11.142 0.0701108 0.0575356 
6.3323 3.6307 0.104571 0.146136 
6.1761 21.7214 -0.196418 0.0806555 
12.7292 15.9576 -0.199937 -0.0400171 
11.9272 20.1236 0.105192 0.142607 
7.4262 1.8763 -0.287299 0.0376802 
5.5635 20.7537 0.0785575 -0.0519837 
3.8352 12.5123 0.120902 -0.161745 
6.4591 4.4383 -0.0336782 0.163265 
7.9134 15.5311 0.0227501 -0.089548 
13.5437 17.6267 0.235741 0.247378 
12.1241 14.9433 -0.0306024 0.00282211 
7.7112 20.5634 0.0149724 -0.0515082 
11.1296 5.4259 -0.0636656 0.232251 
13.8971 19.1969 0.163737 -0.135824 
4.839 14.9284 0.272113 0.0339615 
5.9584 17.122 -0.0326242 -0.178211 
7.7582 1.5737 -0.04176 0.177945 
11.8855 13.5563 -0.184207 -0.165962 
6.9468 13.2398 0.0552099 -0.0776945 
11.1615 10.9034 0.176696 0.234716 
4.1898 17.4187 0.0213931 -0.0246446 
0.7259 16.6747 0.055283 -0.118438 
8.0201 18.5796 -0.0340359 -0.115437 
6.0182 20.0154 0.118986 0.18921 
9.5167 14.4142 0.132566 -0.128043 
10.5997 1.2777 0.0146625 -0.0572487 
3.3006 16.9108 -0.0560568 -0.193332 
7.2688 21.3048 0.187894 0.0567907 
13.1977 1.0314 -0.378542 0.0113083 
1.3244 11.3275 0.181148 0.0440594 
4.0373 4.1702 -0.174085 0.113729 
2.0681 3.7837 -0.0808719 0.0186719 
1.3248 12.628 -0.194909 0.091193 
4.7887 17.554 0.333265 0.123297 
11.7986 17.7593 -0.187478 0.109027 
13.595 20.3316 0.170705 0.0276593 
10.6727 14.8594 0.128484 0.0843148 
12.9769 5.6213 -0.126509 -0.207822 
2.5814 20.7442 0.00874607 0.203489 
8.9977 8.3013 -0.183537 0.0676049 
10.9386 12.2273 -0.0372078 0.0715163 
4.4538 1.3781 0.209385 -0.00777353 
10.4901 16.1679 0.145353 -0.000221777 
8.7239 16.0848 -0.116122 -0.0912597 
4.5608 12.1343 0.121594 -0.0457404 
9.2198 9.8997 -0.0619525 0.0112781 
4.5053 7.8805 0.0283947 0.00594624 
1.7153 3.806 0.063964 -0.164731 
13.8777 9.6039 -0.202894 -0.00422958 
0.6973 0.5414 -0.116668 -0.160464 
2.7033 15.7572 -0.430619 0.0551028 
5.4788 16.3717 0.161167 -0.156677 
6.8242 13.4564 -0.0609341 -0.0309816 
0.8224 12.8784 -0.242834 0.137649 
1.4856 15.4023 0.0609242 -0.0585314 
10.175 14.1178 -0.0574502 0.00944939 
7.4574 8.2633 -0.0274146 -0.3181 
3.4661 20.4413 -0.0759561 0.0607954 
10.6723 7.0059 -0.0502127 0.0232159 
1.5789 5.2589 -0.0723029 0.0379674 
11.6121 11.2478 0.230907 0.0550559 
2.2093 17.4699 0.177781 0.0264827 
3.5152 12.8721 -0.253513 0.236351 
12.0472 15.9164 0.116062 -0.148903 
13.8863 0.945 -0.119386 -0.0984238 
2.1657 14.9847 -0.156203 0.206769 
6.6261 11.8446 -0.0323232 -0.109762 
4.8999 17.9693 -0.0537211 -0.119921 
8.5429 15.9468 -0.0199717 0.105918 
6.414 0.9969 -0.0529085 0.0691234 
13.9081 2.1081 -0.181922 -0.0883112 
2.237 18.7653 -0.0180305 0.100299 
13.3561 8.2395 0.0165437 0.178917 
7.984 6.5633 0.0740537 0.0388619 
9.0483 15.2904 -0.119164 0.0900431 
12.028 4.7167 0.143189 0.0874898 
5.0294 0.8508 0.16146 -0.0728781 
8.905 7.6292 0.00486055 -0.198464 
3.0385 12.0907 -0.188649 -0.122616 
6.5445 2.0725 -0.0453794 -0.147257 
1.2922 20.2291 -0.0305253 0.0162834 
4.0832 16.8434 0.0710551 -0.102557 
7.8494 9.1733 0.102661 0.00790757 
0.8295 10.8643 -0.0712919 -0.275935 
2.7274 12.65 0.19035 0.0490806 
3.5074 0.6354 0.127972 0.120759 
9.1785 12.1279 0.120675 0.148263 
11.9487 21.0039 0.209558 -0.331343 
5.6753 18.9215 -0.197617 0.10352 
7.2011 4.9591 0.105122 -0.0436134 
6.3508 5.4911 -0.0853733 -0.0167734 
8.1967 7.7084 0.085718 -0.00773352 
5.4314 9.7087 -0.158523 0.133569 
9.413 7.3535 0.274674 0.0888659 
4.1744 17.119 0.0222362 -0.186312 
11.681 0.6079 0.0369165 -0.0600823 
3.8454 1.6451 0.144448 -0.335567 
7.9651 14.271 0.10702 0.152284 
5.8041 12.559 -0.00766929 0.196457 
8.4598 14.9802 0.0567352 0.0897137 
2.2696 0.7185 -0.114315 -0.255836 
9.1594 5.2023 0.127794 -0.0273598 
2.3618 19.8354 -0.0833026 -0.0455402 
11.301 17.9053 -0.0665187 -0.0710997 
8.3258 0.6166 -0.272919 -0.289446 
10.0458 12.8566 0.28927 -0.0624335 
10.5909 3.3991 -0.256846 0.113501 
12.0016 10.1563 0.0792308 0.0788856 
12.2238 15.4116 -0.0458387 -0.0808403 
9.2401 19.1068 -0.215401 0.0603579 
6.7284 1.8269 -0.0866191 0.0215227 
13.7701 21.1336 0.0790339 0.0347341 
3.1966 7.0383 -0.114276 -0.290691 
10.3314 17.6359 0.116983 0.0730225 
8.4202 3.6795 0.0248149 0.381427 
11.7014 1.8903 -0.215122 -0.267993 
6.872 4.8774 -0.132836 -0.214439 
5.3735 17.5581 -0.060971 0.236234 
12.1526 7.689 -0.138886 0.1416 
5.3032 11.3968 -0.00885923 -0.257989 
7.0618 8.6531 0.190442 -0.0862451 
3.6477 5.671 0.0032441 0.00353581 
8.4846 14.2368 -0.0344366 -0.0322075 
3.8934 9.4587 -0.0496242 -0.0260055 
3.6025 21.6817 0.187341 0.0331343 
12.7065 4.3707 -0.0927774 -0.162501 
5.5046 14.5632 -0.210714 0.167899 
7.2303 12.3696 -0.0975713 -0.0373133 
9.6145 15.7933 0.19687 0.0506347 
11.4112 0.6211 0.314263 0.0253223 
3.7384 0.9261 -0.0918423 -0.318494 
5.361 7.2177 0.0093336 0.589003 
7.5325 17.7539 -0.0695288 -0.0435998 
4.9505 10.1604 -0.101857 0.119107 
11.3045 15.3178 0.122692 0.0866147 
1.5356 0.6559 0.123629 0.23815 
6.1002 10.6569 0.0277465 0.311011 
11.8907 2.7053 0.0426487 -0.15204 
8.1598 20.5222 0.0245379 0.155142 
6.6051 18.1512 0.45917 0.174129 
7.5225 11.9713 -0.0301825 0.0177196 
6.1171 5.54 -0.0715954 0.172675 
7.4773 8.0085 -0.04028 -0.165088 
5.7531 1.0735 -0.0816806 -0.0510639 
5.6129 18.5334 0.248902 0.197678 
12.0568 16.8615 0.054799 -0.25429 
4.6063 10.7758 0.101121 -0.0642432 
4.6246 10.5595 -0.104527 -0.156011 
1.5849 15.911 -0.357336 -0.161489 
12.9109 13.182 -0.278104 -0.184508 
5.6006 2.6356 -0.0131505 0.14315 
11.0257 2.6576 -0.0211228 0.148638 
5.0283 9.0718 0.0854614 0.0132295 
13.9035 3.6709 0.161551 0.00308587 
3.9504 20.1968 -0.0402255 -0.190168 
13.4775 18.2616 0.0994582 0.084628 
1.253 4.1736 -0.0156034 0.103366 
12.9129 8.8427 -0.093901 0.0745994 
1.1553 13.8205 -0.197449 0.114456 
0.5561 12.9252 0.403121 -0.0122446 
7.7691 16.4951 0.0411671 0.0423373 
10.9832 8.8626 0.152319 -0.14995 
3.5747 7.7913 -0.0431486 0.151187 
11.1437 14.3973 0.123317 -0.0529722 
12.0067 14.736 0.0843256 -0.107365 
6.7389 12.0144 0.019076 -0.0556273 
1.8906 11.9614 0.268914 -0.105517 
8.1687 14.7223 0.019394 -0.0528108 
11.7165 14.68 0.282455 0.112024 
12.2242 11.3759 -0.202877 0.2042 
2.1876 10.6121 0.0519255 0.0625185 
12.8987 13.388 0.111912 -0.147642 
10.0714 19.557 0.00404404 0.114805 
10.4275 0.5789 -0.11553 -0.109348 
8.9972 10.4858 0.118576 -0.215773 
13.2922 20.996 0.102442 -0.203224 
6.1028 20.3178 0.145818 0.176267 
7.9597 11.911 0.10042 -0.108414 
9.5244 2.1606 -0.0337223 0.135459 
1.6604 8.2355 -0.0553084 0.0951392 
10.0526 6.868 -0.0518113 0.104537 
4.3223 20.7971 -0.151046 -0.020304 
1.4717 2.6597 -0.0960128 -0.071658 
1.0374 8.7572 -0.118743 -0.00352213 
2.7551 13.6541 0.00338799 -0.137677 
10.6895 4.2618 -0.0767916 0.175338 
8.9073 5.6953 -0.346123 0.194889 
1.0484 5.6798 -0.223078 0.000952853 
2.1087 9.9934 -0.0215888 0.199204 
5.2876 14.8965 -0.294608 -0.205599 
12.1821 1.4851 0.0878305 0.224964 
5.8255 19.0547 -0.250321 0.0134126 
3.0348 3.0887 0.059659 -0.0118512 
13.1362 17.4266 -0.20449 0.182402 
1.4606 4.9248 0.0348552 0.0358083 
9.2251 8.2899 -0.00813619 -0.0690259 
7.3776 10.371 0.351359 -0.10099 
8.7454 8.616 -0.0827684 -0.0933485 
9.3348 15.2455 0.0321516 -0.0891583 
3.2842 20.5841 0.119289 0.0285041 
2.8864 18.5666 -0.182883 0.0534409 
4.0407 7.3885 -0.153691 -0.292977 
6.357 17.8164 0.000187738 -0.160951 
9.2132 7.4123 0.0602119 -0.184644 
11.6404 21.0852 -0.162167 -0.116779 
7.6266 20.0563 0.0903591 0.0147037 
1.4137 16.6754 0.219056 0.182694 
1.4108 9.4903 0.257349 0.0788356 
1.5234 16.476 0.199964 -0.284312 
11.0882 19.6329 0.0762196 -0.0241936 
12.2176 11.1501 0.128481 -0.0131486 
12.5596 4.8829 0.20839 0.0526133 
6.554 8.2984 0.0186387 0.027356 
9.1185 2.7913 -0.162536 0.145932 
4.6205 11.4349 0.0559555 -0.0569657 
5.0763 16.7426 -0.251907 0.00908467 
6.2401 14.6054 0.110835 0.158126 
8.7303 17.8593 -0.00952071 -0.0651789 
4.5032 8.3947 -0.0835574 0.0726453 
1.1639 10.5118 -0.134453 0.127198 
7.0781 11.57 -0.29395 0.0582588 
4.2967 5.5719 0.113303 -0.118077 
12.3704 16.1562 -0.00217145 -0.238031 
5.4861 9.238 0.115239 0.131591 
12.4394 6.8771 0.104183 -0.0158167 
3.2717 11.9217 0.205563 -0.0886158 
4.2441 4.5467 -0.0317918 0.0459456 
6.2075 21.4754 -0.153391 -0.161094 
7.9468 15.1383 0.0557682 0.0951612 
0.8499 9.193 -0.0156411 -0.237195 
6.863 1.2031 0.0267641 0.0323484 
7.0193 2.5344 -0.164724 0.0278298 
9.7404 11.6891 0.204471 -0.0435119 
2.1416 16.2456 -0.062887 -0.177477 
4.9388 4.6333 -0.191301 0.306476 
13.6562 20.0143 0.285107 -0.0863365 
3.2711 15.2189 -0.242787 -0.0185025 
4.2718 17.7726 0.0364441 -0.00328371 
6.2045 9.4377 -0.136659 0.132698 
7.9277 20.126 0.0637252 0.203465 
7.0442 7.3278 -0.117476 0.161888 
7.9193 12.422 -0.0815141 0.0111496 
3.9576 13.5187 -0.120025 0.108562 
2.6788 16.602 0.075416 -0.0243449 
2.1183 15.2816 -0.00246986 -0.287178 
0.8686 1.241 -0.306266 -0.0419634 
1.113 9.8402 -0.0599216 -0.0925303 
12.4145 10.8646 -0.00713353 0.0118709 
0.5013 20.784 0.00440493 0.0850225 
3.2361 12.9119 0.00918151 0.0260404 
10.5514 17.7474 -0.0872455 0.0207272 
10.857 11.5759 0.00898831 -0.0887013 
10.1137 17.0618 -0.0404606 0.0257131 
10.7713 16.5249 -0.0704334 0.00672835 
13.7984 13.3555 0.0770454 0.140485 
7.5178 7.2764 0.03618 -0.199432 
13.6803 16.8582 0.0679689 -0.0630614 
3.0692 1.8811 0.115759 -0.12105 
9.4499 12.7292 0.0267556 0.271878 
7.7686 21.5258 -0.0347894 -0.00608146 
1.9114 17.3999 -0.113943 0.0319396 
13.391 8.8079 0.153642 -0.0844418 
2.28 4.3354 -0.0658369 -0.106245 
7.6666 7.8914 -0.1248 -0.0727002 
5.0917 12.924 -0.0232848 -0.254969 
11.2096 17.4212 -0.0749804 -0.200903 
10.7212 20.8905 0.180346 0.304608 
5.294 11.9306 -0.0395107 0.0759147 
3.6027 1.6662 -0.274272 -0.366394 
0.7089 8.2381 -0.0490194 -0.0631412 
4.1223 4.912 -0.121244 -0.0682732 
12.3536 13.9469 -0.211073 -0.0164255 
4.0382 9.6233 -0.152942 -0.131404 
3.9367 17.9922 0.00796201 -0.0875601 
1.0206 9.459 0.0395949 0.0527252 
1.5736 8.8677 0.119588 -0.135524 
7.815 13.3135 0.153863 -0.0618125 
13.4197 14.3668 0.0183922 0.230126 
12.5939 1.9603 -0.115855 -0.041783 
2.6428 20.5162 -0.175636 0.0167871 
6.4484 17.1403 0.0930241 4.64434e-05 
12.2441 19.7783 -0.175871 -0.256536 
3.4606 14.6948 0.131879 0.151473 
13.5312 3.4312 0.0460479 -0.0179062 
10.0861 10.3164 0.256642 -0.193954 
11.6285 16.5952 -0.209719 0.0417158 
1.9465 9.7381 0.0241181 0.126902 
2.258 12.42 -0.132983 -0.0315354 
3.7889 2.8415 -0.0863938 -0.132174 
5.6959 3.2112 0.00312879 -0.0893887 
11.7773 5.3928 -0.282624 -0.171223 
13.6495 9.3358 0.0974904 -0.104606 
2.1481 6.8684 0.0613352 0.160888 
7.0029 4.2686 -0.0132958 0.0327001 
13.1594 16.5601 0.103259 0.0417255 
12.1997 5.4723 -0.0123169 -0.0391637 
10.0212 6.4375 0.167127 0.064115 
12.2679 7.111 0.193752 0.0832743 
0.5795 5.9516 -0.00652525 0.0673747 
0.8646 14.1804 -0.190502 -0.00960929 
7.0122 16.8799 0.235741 -0.0773671 
6.0999 17.4581 0.232468 0.040952 
0.7186 12.0707 0.0877069 0.0406346 
4.4658 2.5203 0.0626737 -0.0836818 
2.1587 1.9285 0.0632132 -0.0492254 
10.3989 9.8961 -0.0483224 0.0559782 
11.3279 6.9807 0.0269873 -0.0214289 
10.2048 11.6884 -0.0474506 0.107878 
5.4266 20.3533 0.0420269 -0.158359 
9.9951 8.2526 0.0983151 -0.0302669 
10.026 20.5841 0.0546133 -0.0278514 
2.1247 19.1746 -0.0790776 -0.157411 
9.3771 8.9652 0.0659207 -0.00870788 
4.3432 21.6667 -0.123664 -0.228138 
13.283 16.3637 -0.251979 -0.0144629 
12.7734 2.5419 -0.0484852 0.147654 
11.728 6.681 0.16176 0.13059 
4.5169 21.5058 -0.172037 0.0633054 
0.8588 15.0564 0.0760216 -0.120696 
2.7707 19.1876 -0.125378 -0.185576 
9.4012 10.7827 0.0535773 0.0293506 
12.033 10.5116 0.140755 -0.274759 
12.9078 3.5008 -0.0042176 -0.0173401 
1.86 16.0896 0.134417 -0.320588 
11.4589 17.2509 0.0839162 0.280248 
11.3462 16.3624 -0.168879 0.0207721 
7.4929 21.5228 0.165755 0.0294108 
3.4975 11.9023 0.0357194 -0.0920251 
8.2023 11.1442 0.0936125 0.196117 
8.7454 3.2123 -0.0225923 0.0415078 
4.991 11.8006 -0.0120259 0.011849 
5.6278 11.1639 0.0843128 -0.165575 
6.7505 3.5298 -0.150959 0.0889814 
1.7411 19.3892 0.0213251 -0.122882 
10.8117 1.4612 0.102842 0.0780397 
10.1872 5.7076 0.1181 0.100405 
10.1141 10.6498 -0.408136 -0.128205 
4.2489 7.4575 -0.240644 -0.367476 
7.2581 10.0133 0.277303 -0.00125859 
2.5902 10.2388 0.0199724 -0.0232514 
5.4914 2.0647 0.0895113 0.0377957 
4.9352 13.1445 0.191899 -0.28766 
9.3716 8.0609 -0.169652 0.256933 
5.6281 0.5045 0.0955762 0.0521499 
13.8011 17.9232 -0.234632 -0.138496 
10.6469 7.7497 0.0309679 0.0692219 
13.9782 2.59 -0.299807 0.0806599 
4.8102 18.9556 -0.032583 0.0134306 
12.6553 11.6795 -0.00840598 -0.0190657 
0.5122 21.575 -0.00161867 -0.132895 
3.0598 19.1013 0.168318 0.37604 
11.7938 19.0402 -0.0491767 -0.0316496 
6.303 7.3761 -0.0379872 0.0456105 
13.5117 5.6465 -0.117475 -0.191226 
3.1315 16.0193 -0.0947376 -0.14273 
6.3657 3.4204 -0.242599 -0.0581322 