ITEM: TIMESTEP
0
ITEM: NUMBER OF ATOMS
616
ITEM: BOX BOUNDS pp pp pp
0.0000000000000000e+00 2.8000000000000000e+01
0.0000000000000000e+00 2.2000000000000000e+01
-1.0000000000000000e+00 1.0000000000000000e+00
ITEM: ATOMS x y vx vy 
8.1512 7.3766 -0.0332225 0.204916 
13.1189 15.7187 0.0259692 0.00268244 
11.9177 8.9092 0.0646353 0.0121944 
9.5134 17.1832 -0.321191 -0.007559 
10.0915 2.5641 -0.0846788 -0.0369522 
5.458 11.7736 -0.0922785 0.215808 
2.9635 20.1169 0.163963 0.166027 
2.1099 7.4074 -0.140757 -0.0738858 
7.3994 12.4591 -0.0300415 -0.336318 
10.5599 2.0017 0.106785 0.0877048 
3.6265 5.2195 0.0140291 0.0314601 
8.0619 4.5979 0.125091 0.115275 
11.7937 3.9605 -0.140373 0.0130119 
3.7262 18.6499 0.154778 0.0266121 
5.5666 16.7421 -0.268795 0.301423 
8.8669 15.6391 -0.0745753 0.0189529 
6.2868 14.8902 -0.0175411 0.432179 
5.2827 7.0139 -0.0578039 -0.0845725 
10.9475 3.4774 -0.0729985 -0.144973 
7.8209 0.5288 0.00200708 0.140349 
7.1855 21.4861 0.0750437 0.000839041 
5.9568 6.001 -0.197738 0.0340619 
12.7272 14.0106 0.167397 0.0527404 
5.2058 4.8123 -0.221937 -0.186338 
9.8355 19.2503 -0.0782394 -0.0679764 
2.5476 21.0219 -0.157291 0.0713095 
7.0985 15.0434 0.0953665 -0.463485 
12.6687 1.6372 0.0211161 0.050987 
1.1859 18.2762 -0.0301424 0.13972 
12.7283 2.3526 0.139289 0.0143551 
6.6173 10.1431 0.140056 -0.113918 
1.4371 10.5809 0.157139 -0.166547 
1.824 1.2968 -0.196016 0.00799686 
8.2858 6.138 -0.0195097 0.123351 
13.1134 6.9343 0.124632 -0.122158 
8.3156 19.3216 -0.0579014 0.101504 
8.3921 13.0723 0.0897069 0.16486 
9.3719 5.3929 -0.0864525 -0.0400416 
9.7899 15.7871 0.136385 0.0804688 
12.5501 16.233 -0.160507 0.0372515 
9.4479 0.5313 0.0455139 -0.0603072 
8.7542 4.3794 0.0834343 -0.182938 
2.222 4.6386 0.156851 0.182988 
4.5165 3.499 -0.0803502 -0.111693 
7.2526 6.4467 0.219199 0.278679 
11.6637 20.7817 0.168678 -0.153347 
4.1799 19.0685 -0.0233338 0.142325 
5.5148 8.7773 0.0984064 -0.113912 
13.3531 15.2783 -0.0674263 -0.0672105 
12.2404 4.5471 0.162476 0.227063 
6.3844 12.371 0.0225174 -0.00346663 
11.3824 6.5952 -0.0064023 -0.0728434 
4.3285 17.1801 0.289966 0.0169966 
2.6025 18.5505 0.202938 0.353652 
4.5591 10.7661 0.0698096 0.116173 
10.7451 13.7173 -0.111721 -0.0147565 
4.4092 2.3871 0.212327 -0.202862 
7.0815 17.0569 0.153948 0.195709 
6.6363 15.3992 -0.156527 -0.0378663 
13.8529 1.462 -0.056975 -0.0779159 
6.7401 3.8042 0.111494 -0.120773 
1.3262 7.2468 0.255194 0.102443 
2.991 21.078 -0.133467 -0.197613 
1.3506 10.2996 0.111166 -0.221468 
13.4795 6.5463 0.0651875 -0.10695 
1.8633 16.1974 -0.0898278 -0.014293 
10.4713 11.3093 -0.273378 -0.0655788 
11.21 11.7206 -0.047275 -0.0853292 
8.4762 13.7951 0.0151692 -0.145782 
0.8113 19.595 0.0511576 0.0570193 
1.6921 1.8547 -0.220635 0.156979 
8.3226 5.5934 -0.0183224 -0.122298 
13.5383 10.9965 -0.094798 -0.209074 
12.8683 13.3682 -0.0195745 -0.0139669 
10.3021 9.8177 0.1663 0.0568416 
7.4353 16.0269 0.0629096 -0.0924943 
6.3544 4.9652 -0.0964648 0.132435 
6.4694 1.5371 -0.232721 -0.0188818 
8.7821 4.9106 -0.162197 -0.357862 
10.6118 0.6638 -0.00603291 -0.0825728 
12.0774 19.2166 0.0751576 0.188291 
12.0103 6.8426 -0.263397 -0.204655 
6.6106 21.4215 -0.0591231 0.089549 
12.9808 0.6732 0.182814 -0.0622262 
8.3043 10.0801 0.00440095 0.139139 
9.6176 3.1 0.280139 0.0133454 
9.9576 12.9941 0.147174 -0.174484 
1.0448 4.1656 0.102401 0.161429 
7.5738 9.3562 0.0102135 0.0381964 
5.524 15.695 -0.236767 0.128678 
8.188 20.3697 0.145428 0.365724 
8.7575 9.3595 -0.0125724 -0.0192587 
6.1528 14.7192 -0.0359124 0.115388 
4.6635 5.6269 0.349578 0.168305 
13.1658 2.0617 -0.0220823 -0.253965 
10.1296 4.9195 -0.206289 0.086439 
5.6596 1.693 0.256477 0.223057 
13.7853 20.2935 0.0322054 -0.281497 
8.3195 12.0409 0.141325 -0.12324 
4.2957 16.0126 -0.162046 0.000745199 
11.7934 21.5222 -0.194001 -0.0232883 
2.7107 14.3117 0.155359 0.146234 
8.9946 10.1159 -0.0811418 -0.0398155 
2.2038 11.1247 0.24403 -0.153895 
3.419 20.5388 -0.0200069 -0.0981459 
3.3934 17.0093 -0.0599877 -0.00398643 
5.4985 18.3944 0.237265 -0.249021 
7.9327 9.2451 0.0479783 -0.157996 
4.0685 18.128 0.0521406 -0.111032 
11.9129 11.1934 0.0452024 0.0468927 
3.4161 12.1233 0.039161 -0.018729 
6.0889 21.4888 -0.00728707 0.186664 
3.8909 19.1838 -0.106058 -0.074706 
4.1256 19.9532 0.0543965 -0.0731297 
0.7577 6.1554 -0.0336379 -0.0572218 
5.369 7.6163 0.0492116 -0.0856031 
8.2601 18.7918 0.180972 0.143372 
10.1801 7.3727 0.116417 0.027712 
4.8003 3.7721 0.0458549 -0.1356 
2.1502 9.4599 0.070606 -0.251026 
6.8425 14.1562 0.16685 -0.0815522 
0.7674 11.8349 -0.0645782 -0.162847 
5.0267 4.6962 0.0949089 -0.0980974 
12.4676 3.8211 -0.0141868 0.276922 
11.6457 7.6284 0.0821752 0.0409932 
8.5391 21.5522 0.0680088 0.233046 
8.6868 10.9195 0.00556668 0.0561681 
13.0018 7.8825 0.0663991 0.120954 
8.5968 15.8375 0.183442 0.0531859 
6.6102 7.0467 -0.168558 0.145085 
6.0242 19.4253 0.147623 -0.0433675 
6.269 4.6151 0.162313 -0.0535874 
6.0648 10.8159 0.0868927 -0.0624187 
1.4058 13.4622 -0.0366344 -0.118593 
1.2525 5.8297 -0.101359 0.279548 
6.8233 13.4933 -0.171926 -0.0444511 
13.1587 8.1802 -0.0172198 -0.0179011 
12.1014 8.1768 0.0118916 0.0251073 
10.7626 13.012 -0.101101 -0.216242 
4.8937 2.1039 -0.0496767 -0.0821371 
8.1574 4.1454 -0.112569 -0.0856551 
4.0877 1.1179 -0.0704446 -0.120745 
6.8393 4.4699 -0.191653 -0.0547926 
8.576 8.5682 0.201016 -0.0257834 
3.4032 0.676 -0.0924927 -0.123464 
5.0385 19.6859 0.0837993 0.171436 
5.0064 8.8459 0.137202 0.0166071 
7.9031 11.5996 -0.0655591 0.029952 
7.8938 8.935 -0.0871069 -0.164304 
2.3223 10.5997 0.182028 0.090227 
8.4425 3.6722 -0.17892 -0.190845 
7.305 18.2608 0.0633471 -0.0894374 
13.9737 6.8809 -0.191789 -0.0732598 
13.28 14.4958 -0.0426649 -0.0933977 
12.3931 16.5339 0.09038 -0.11828 
5.3126 9.4124 -0.0300911 0.0160153 
4.7597 13.0439 -0.0591806 0.00773253 
7.1772 14.2034 -0.00884327 0.0393104 
7.0629 21.2878 -0.0560953 0.121514 
9.483 9.9956 -0.0379252 -0.164617 
11.3402 21.7465 -0.0389803 -0.0953119 
7.0376 6.6018 0.18517 -0.0690034 
3.2803 6.1778 0.261702 -0.0705715 
1.3745 14.1522 -0.214812 -0.142882 
11.6514 15.3251 -0.0790086 0.0992804 
4.5567 13.1422 0.220042 0.0819694 
6.4524 13.0659 -0.267234 0.0303811 
12.0107 15.3832 -0.196313 0.198459 
2.8997 1.1079 -0.106055 0.160415 
10.3595 8.481 -0.131025 0.0457271 
3.6333 20.6473 -0.136488 0.21724 
3.0052 6.6354 0.290718 0.317104 
3.6802 2.1236 0.162666 -0.190832 
8.8771 17.9458 0.226006 0.05292 
2.4915 6.4107 -0.228833 0.220985 
13.1239 5.6973 0.0147207 0.13342 
7.5387 1.0199 -0.00642999 -0.0107594 
1.6944 6.247 -0.0967483 0.0391168 
9.8573 17.9188 0.153997 -0.039213 
4.774 10.0671 -0.0185338 -0.0718936 
4.4441 15.4016 0.0124175 0.0361038 
7.8249 21.7331 -0.0377742 0.0348863 
5.2644 18.5204 -0.0813302 0.0622039 
12.9138 12.6776 0.131486 0.142735 
8.8243 18.7557 -0.0559386 -0.071986 
11.1277 8.7538 -0.0486309 -0.284937 
9.3837 9.5568 0.0913292 0.0850749 
9.651 3.8112 0.232585 -0.09875 
9.3854 13.873 0.187821 -0.0769803 
3.6422 21.7608 -0.147076 0.0649021 
7.3231 4.2021 0.209243 0.158369 
13.0146 3.5526 -0.0597394 -0.0393111 
6.1551 7.8855 -0.167027 0.0030375 
3.2993 5.2861 -0.183643 -0.0799108 
1.369 4.8738 0.0158832 -0.0935469 
13.6005 5.5622 -0.0346408 -0.0732898 
12.8081 16.1072 -0.0493232 0.0405724 
8.7594 17.2111 -0.0973732 -0.203667 
7.7312 6.1476 -0.114386 0.247488 
8.8818 10.5178 -0.126828 -0.0253312 
3.4067 9.3537 -0.0313631 0.0915663 
4.4585 16.7769 -0.0392425 0.0652586 
12.8797 18.5628 -0.314838 0.0333269 
1.1334 11.2399 -0.188593 0.00240925 
10.1112 14.9039 0.00843355 -0.023045 
2.8346 5.8715 0.135476 -0.0138258 
10.8636 1.2999 0.0482054 -0.0935429 
10.3383 2.1711 0.219524 0.019134 
7.4084 9.7424 0.143482 0.088652 
1.947 18.8058 0.0915952 0.0878425 
1.4754 18.7088 -0.151017 0.0970677 
12.5662 11.7609 0.0889263 -0.167709 
6.9061 17.5528 0.0345195 -0.00015458 
9.3949 17.8453 0.0251491 -0.0301159 
11.9825 15.7742 -0.0100642 -0.119517 
8.7031 7.6222 -0.283194 0.124685 
5.4445 5.3408 -0.0541225 0.169508 
13.6094 9.8805 0.00593895 -0.119747 
2.2658 15.7882 -0.107713 -0.0970433 
13.4444 20.3254 -0.139179 -0.120783 
2.0144 5.8537 -0.125882 -0.059165 
5.4746 16.0389 -0.266367 0.0770717 
8.7122 20.9218 0.570098 -0.0661529 
11.9083 7.8993 -0.0555367 0.0671613 
0.9123 3.2348 0.0342365 0.0417449 
7.0289 20.7137 0.0193805 0.233432 
11.4346 12.3329 0.013046 0.0595273 
9.9574 18.608 -0.144692 0.00444493 
0.7076 2.1455 0.170534 0.0189345 
0.9952 6.4082 -0.14779 -0.255591 
9.0807 17.47 -0.113079 -0.00763733 
9.5653 8.1395 0.138306 -0.192856 
13.9048 0.6887 -0.0638327 -0.07239 
11.5376 4.55 0.13526 -0.243925 
3.2055 13.4258 0.131713 0.0652375 
12.457 3.0892 0.0630908 -0.114529 
1.4771 8.8536 0.159512 0.15452 
7.2871 2.0872 0.173813 -0.110461 
5.8889 3.066 -0.252702 -0.0534033 
8.2169 14.1037 0.11236 0.137702 
7.007 12.0597 -0.331615 -0.00918976 
5.4906 15.0047 -0.0864878 -0.216571 
9.8362 3.0721 0.101748 -0.0474918 
1.9766 10.4473 0.253125 -0.163331 
5.1432 15.926 0.0731253 0.00772695 
0.9318 1.8939 -0.0588214 -0.196126 
2.79 17.7827 0.0457023 0.0283968 
4.1014 8.4612 -0.153638 -0.115198 
3.6224 2.5854 -0.0680312 -0.102274 
12.2448 2.6208 -0.100853 0.0818694 
10.9649 19.9828 0.0212146 -0.0834558 
7.2037 2.3669 0.1556 -0.211598 
1.8791 3.6173 0.134171 0.121982 
11.2902 15.3697 0.125019 -0.183369 
12.5005 1.8299 0.196402 0.328373 
7.8717 4.2075 0.0724856 0.0522436 
7.9087 13.9718 -0.0348404 -0.0768731 
1.148 16.7172 0.0724803 -0.0632913 
5.0372 12.5285 -0.117793 0.0473206 
5.9922 20.9358 -0.189797 0.0316956 
8.8581 0.859 0.149124 0.110939 
12.3774 10.0967 -0.00975308 0.189471 
1.848 8.1406 -0.129715 -0.072117 
11.9038 7.2182 0.0938901 0.13377 
9.2834 15.6145 -0.0228552 0.173144 
9.6156 7.8515 0.0706459 0.170848 
7.0517 13.3095 0.230966 -0.00978353 
9.3424 7.6568 0.165648 0.0489224 
1.5032 21.5873 -0.212674 -0.290968 
3.8435 8.6614 -0.197813 -0.0012188 
3.2511 18.7531 0.153013 -0.325451 
7.1927 9.6174 -0.143351 -0.0127003 
12.2416 4.266 0.289395 0.242234 
13.7677 1.8009 0.146555 -0.0181369 
9.8904 14.2286 -0.06936 0.0533836 
4.7118 14.5681 -0.0374955 -0.0101792 
12.1189 1.0841 0.150238 -0.0795091 
5.4783 3.9734 0.294484 0.0951957 
5.5662 13.1972 0.0552655 -0.12274 
1.8195 15.9816 -0.172433 0.0527498 
13.5175 11.4623 0.0357793 -0.0682519 
1.2079 19.7961 0.0949026 -0.0928449 
6.1007 2.828 -0.133763 0.0671911 
9.4824 14.2939 0.175925 -0.139619 
1.8838 13.6128 0.00629912 -0.0320915 
11.7072 19.0967 -0.0475092 -0.157325 
6.5167 19.5194 -0.210481 -0.179005 
10.7531 9.9564 0.11075 0.151644 
2.3885 5.9927 0.0128986 -0.0948148 
13.8125 17.0111 -0.158127 0.0525325 
4.5208 4.1733 -0.0714346 0.0894448 
4.668 8.3004 -0.0392887 -0.157216 
5.5437 16.2639 0.0439332 0.0871077 
3.7238 7.2986 -0.248756 -0.11773 
2.7573 16.4571 -0.175875 -0.0232863 
4.323 8.7011 -0.0123142 0.0736598 
1.7457 3.9379 0.145388 0.123344 
15.5296 13.1389 -0.102223 0.0823422 
21.3639 2.9571 0.014905 0.150689 
23.2651 16.9267 0.0260279 0.0238166 
18.7785 18.3199 0.13072 0.0994254 
23.5598 15.5582 0.0306537 0.103803 
26.5826 18.0276 -0.0615698 -0.241261 
19.0021 7.276 0.217224 -0.121602 
17.0724 20.4229 -0.00229362 -0.0121862 
19.2916 19.4318 -0.271296 0.0110266 
22.8281 7.845 0.0469598 -0.0711191 
15.4174 15.4559 -0.327817 -0.0115751 
24.9262 11.4681 -0.0380707 -0.0927821 
21.6794 13.4935 0.0205 0.130758 
23.5894 21.4068 0.0564112 -0.0479965 
19.6415 18.273 0.111186 0.0477647 
24.9103 12.4156 -0.202006 -0.221195 
20.9385 7.9644 0.0271543 -0.020081 
23.6126 3.5155 0.0295336 -0.164855 
15.2813 15.6469 -0.226021 0.0623716 
24.9499 2.2291 -0.032755 -0.0570346 
16.7537 18.7939 -0.147526 -0.0443163 
14.288 20.7839 0.0829514 -0.0402354 
20.111 13.0595 0.203154 -0.102121 
15.5849 9.3874 0.038992 0.0673797 
19.8333 10.625 0.0545533 -0.0459328 
17.4796 14.045 -0.0605468 0.0909039 
15.9921 9.9324 0.406494 -0.0400051 
16.9076 10.8601 -0.0573358 0.0408245 
20.9186 13.7008 0.0888555 0.112692 
26.4653 14.0594 -0.0108898 0.237638 
24.8315 17.5681 0.0368727 -0.0171143 
15.6486 11.3499 -0.0178479 -0.179625 
15.358 11.6401 0.188274 0.195179 
16.147 1.9829 0.158814 0.144776 
24.0434 17.0394 -0.199517 -0.109826 
15.1853 4.3669 -0.223618 -0.0939407 
21.6525 5.1209 -0.0740467 -0.0526055 
20.0122 11.4504 0.0909123 0.130361 
22.1654 12.08 -0.090628 0.0348617 
20.3309 3.0173 0.0348506 0.166784 
16.8065 1.4984 0.15584 -0.00168274 
21.292 10.6837 0.109758 -0.24476 
16.3401 14.0029 -0.143103 -0.305997 
17.9729 11.993 -0.182396 -0.111263 
23.2714 7.5156 -0.204986 -0.17579 
14.2784 16.8308 -0.180328 0.0993579 
15.243 2.0395 0.0893142 -0.0777851 
26.7919 2.0604 0.257469 0.0545126 
24.5069 16.0625 -0.0705198 0.224689 
20.9124 1.9401 0.112236 -0.0318236 
26.5613 16.6382 0.0790163 0.33922 
14.0926 7.5834 -0.0988585 -0.192542 
19.8377 16.1768 0.134487 -0.255006 
22.3081 8.1832 -0.0613208 0.142901 
14.7986 17.0775 -0.127999 0.129862 
19.0762 15.1883 -0.086386 0.163606 
26.0018 7.2489 -0.0688511 0.0801615 
18.8763 5.8314 -0.153808 0.153742 
19.8752 14.945 -0.319965 0.202348 
24.0484 21.1668 0.0563556 0.254568 
21.6373 2.1918 -0.212277 -0.14481 
15.1157 16.884 0.0833059 -0.00413701 
25.3769 10.6212 -0.0302927 -0.0563867 
26.0848 21.7915 0.0353776 -0.0876624 
25.0205 16.7145 -0.0525811 0.200873 
17.1173 1.0957 0.173063 -0.102732 
22.3142 16.4574 0.00208482 0.151367 
15.9694 14.2252 -0.0969166 -0.109462 
14.3803 6.6142 -0.0958641 -0.11485 
18.4965 19.9183 0.0204774 -0.0648353 
24.176 0.7799 -0.0398611 0.201333 
23.5994 3.79 -0.37323 0.0403087 
21.8558 2.9581 0.0799151 -0.0361406 
14.5676 0.6513 -0.0526092 0.128654 
22.4159 8.883 -0.106432 0.0684617 
27.0273 0.762 0.118221 0.0729949 
26.8681 1.3525 0.264664 -0.209356 
14.9562 12.9736 -0.0307934 -0.0401149 
22.0582 21.1 0.019583 0.178563 
18.9179 10.9371 0.0561207 0.0974526 
24.6693 19.1301 -0.110572 0.0829464 
16.8781 17.1708 -0.164596 -0.189651 
15.7516 21.595 0.0530185 -0.171472 
18.3475 20.4852 -0.0702013 -0.00170129 
25.165 2.8531 0.0533043 0.0362884 
16.4164 6.7434 0.202466 -0.0987847 
17.1543 4.8146 0.137437 0.015311 
18.653 16.797 0.131037 0.0643827 
15.8232 5.1573 -0.0133181 -0.0589091 
23.3265 6.9103 0.177851 -0.258508 
27.2849 2.5379 0.107737 -0.0702757 
14.9885 16.272 0.101857 0.00746109 
24.6477 3.1438 0.026826 0.0882955 
16.2781 4.2411 0.24527 -0.183813 
23.5316 5.8798 0.0171347 -0.137566 
21.4198 1.4501 -0.184824 0.269569 
17.7602 19.3995 -0.161618 -0.00918677 
18.2521 13.8892 0.229 0.184818 
25.0972 15.1625 -0.047641 -0.363502 
23.8877 13.5437 0.133117 0.0604321 
16.2017 4.7698 0.0237094 0.0908557 
15.6969 13.2942 0.0965019 -0.0726839 
24.1791 16.1107 0.00474638 0.21558 
20.2642 11.9382 -0.126979 -0.0344913 
27.0562 13.0281 -0.0374299 -0.0528394 
17.4398 13.8441 0.194034 -0.0713943 
16.4355 5.365 0.0349052 0.125849 
21.3756 11.9095 -0.0565511 0.0832655 
20.9924 20.366 0.121035 0.118469 
22.6855 13.0147 -0.0368712 -0.172462 
15.0256 15.8073 -0.0875964 0.165626 
27.7058 20.119 -0.0354929 -0.132396 
16.0952 1.2509 -0.12856 -0.0234801 
15.9434 8.675 -0.133023 0.0940159 
16.6705 19.4698 -0.0313646 0.0858819 
26.9631 3.7361 0.0595207 -0.116183 
16.936 19.3048 -0.501443 -0.0563493 
22.7998 1.7343 -0.413236 0.00959447 
22.5302 2.9995 -0.248942 0.26651 
17.9608 4.8812 -0.266219 -0.150253 
25.6548 13.8332 -0.223072 -0.168068 
26.8693 17.3313 -0.10665 0.207928 
20.2782 9.4597 0.000594362 -0.0507236 
26.9436 7.5827 -0.202385 -0.189804 
21.4401 10.0134 -0.143123 -0.123921 
24.8442 18.0173 0.137163 -0.182308 
19.5334 12.9151 0.0474399 -0.337161 
23.6179 17.4834 -0.111365 0.0994607 
18.2332 13.0018 -0.0829991 -0.157386 
23.2936 10.386 0.106536 0.147366 
17.7658 12.22 0.249058 0.00285082 
26.8639 19.9693 0.0825326 -0.317636 
22.1434 12.2836 0.0438017 -0.20096 
23.0635 14.3236 0.075375 0.00747874 
19.1623 17.0072 -0.130871 0.144425 
17.8508 7.0226 0.0351579 0.329524 
14.7172 15.976 -0.160358 0.0894893 
20.4213 3.2127 -0.0195546 0.0140073 
14.9986 6.2348 -0.0408143 0.210286 
16.0571 1.647 0.0668411 0.114101 
19.858 19.6863 0.0121013 0.11514 
17.1826 19.9723 0.202345 -0.173792 
19.5906 14.212 0.0178137 -0.131728 
26.254 17.6208 -0.0671378 -0.0345051 
17.0385 11.4869 -0.13449 0.0732083 
18.5776 20.4735 -0.0496068 0.0517941 
14.269 1.3499 0.261126 -0.0125648 
23.091 12.6409 0.0116781 0.280761 
16.7378 3.8789 -0.0489433 -0.082074 
20.6383 1.3561 0.117934 0.164968 
25.8878 8.4943 0.100502 0.111919 
21.1997 19.0639 0.24675 -0.14861 
20.1562 18.032 -0.150005 0.112911 
21.8466 11.2118 -0.246432 0.11114 
15.785 6.4895 -0.0742426 0.0483665 
24.4782 6.9869 -0.0616473 0.0886293 
19.1522 7.4501 0.200481 -0.0679639 
15.2061 3.8528 0.105181 -0.174705 
14.593 11.7437 0.0672191 -0.036644 
24.6762 6.3965 -0.174847 0.00493581 
17.1707 8.9583 0.0772166 0.0467093 
27.2748 19.8971 -0.00176014 -0.134821 
15.2768 4.6446 -0.0277955 0.173801 
26.684 15.0611 -0.128856 0.0243825 
24.4816 5.3958 -0.102534 0.0697153 
21.8874 14.338 0.0943708 0.201507 
27.7254 17.8745 -0.0658533 0.0732391 
17.967 11.4364 0.221377 -0.109476 
19.1149 15.6148 0.0956573 -0.0330799 
22.6533 10.5883 0.06718 0.161053 
18.2244 18.5778 -0.203011 0.159833 
26.5668 19.783 0.117495 0.258604 
25.1075 20.4805 0.158108 0.30057 
17.1648 10.3767 -0.00372886 -0.0439222 
21.2739 4.9921 0.077558 -0.0385229 
26.5998 7.5266 0.190468 0.124415 
17.7525 8.4758 -0.00580142 0.0905184 
21.8867 1.542 -0.317838 0.0280249 
27.0382 17.0432 0.258547 0.135048 
22.5127 8.1682 0.169294 -0.136302 
27.6857 6.473 0.0806821 0.117984 
15.6819 3.9041 -0.103395 -0.101401 
25.0731 1.2198 0.36948 0.0719705 
24.1912 10.157 -0.154017 0.0106185 
23.593 20.5603 0.171796 -0.170846 
22.8359 19.8709 0.111732 0.0462702 
14.4338 14.6474 0.0274306 0.0807733 
25.6516 15.9017 -0.18441 -0.113919 
22.2371 21.788 -0.0970424 0.0726729 
25.443 7.1835 -0.00333654 0.0981634 
21.9373 4.5839 0.009659 0.0625932 
26.8014 18.4689 0.0171116 -0.00863964 
25.4509 16.6545 -0.0352494 -0.334096 
23.3532 11.4092 -0.0677744 0.0573808 
18.8228 0.6944 -0.142683 0.0142636 
26.0329 15.6063 -0.0357778 -0.0350877 
15.8675 4.4177 0.0577841 -0.142525 
14.0348 19.5783 0.083971 0.106528 
16.8242 2.8384 0.0154674 0.102719 
18.0561 2.5816 -0.17511 0.164037 
17.8268 14.8341 0.224709 -0.0384068 
19.5887 16.4307 -0.0667264 -0.337394 
25.3806 20.8753 0.135062 -0.0290576 
17.4011 14.7 -0.333633 -0.135452 
25.8351 19.4313 0.101397 0.0252916 
25.312 20.5993 -0.0530876 -0.132933 
17.8799 18.543 0.208852 -0.189669 
18.2663 19.9049 -0.0815998 0.401632 
25.836 5.755 -0.114145 0.251237 
15.7932 19.7497 0.0374361 -0.0276678 
17.4684 6.6663 -0.0602044 -0.104084 
24.6532 14.2553 0.0904409 0.247735 
22.1686 5.1398 0.0336806 0.0449277 
25.9172 21.6123 0.0108433 0.158473 
23.4708 21.6868 0.152182 0.0995524 
20.0019 10.0673 0.122624 -0.018904 
24.5316 1.2391 -0.187214 -0.115293 
21.0865 16.8844 0.0971505 -0.187125 
16.8548 8.9994 -0.369345 0.160891 
15.5025 8.9243 -0.0870555 -0.190292 
24.5072 7.894 0.0617662 -0.0813707 
16.4641 16.61 0.0224268 0.0314017 
24.2187 8.0509 0.0600335 0.203086 
18.9276 3.3676 0.0558839 0.139032 
21.4211 2.2456 -0.309927 -0.0910683 
23.9398 4.5378 -0.266907 -0.126623 
25.2656 0.7629 -0.152298 0.00888568 
25.7668 16.445 -0.0764803 -0.0815875 
18.1862 15.599 -0.189253 -0.113145 
21.2995 12.8319 -0.0251722 -0.0493524 
23.0759 19.5534 0.0525086 -0.0848756 
21.5455 3.0727 0.0118156 -0.155228 
17.0344 13.6799 -0.0842995 0.0364879 
27.4025 16.7643 -0.0641156 -0.102616 
23.4976 15.8741 0.221015 0.121191 
21.1308 6.9439 0.145956 0.040045 
17.3204 12.9148 -0.0707879 0.175773 
18.3246 14.6757 0.242086 -0.0278182 
20.1064 10.62 -0.0197816 0.109832 
14.1742 11.1322 -0.227251 0.00442674 
16.5787 9.651 0.137982 -0.135324 
18.4986 21.5557 0.108981 -0.0866528 
18.8873 9.4157 -0.0805567 0.0589079 
24.5516 15.0674 -0.0454681 0.146021 
24.3438 16.7307 -0.0113422 -0.0822489 
17.702 16.4925 0.09548 -0.0855016 
22.5685 16.2137 0.0260969 0.213067 
14.7402 2.1393 -0.109159 0.144744 
22.8432 12.7806 -0.0428565 0.157914 
15.9127 3.5914 0.113625 -0.330048 
17.6953 17.3699 0.232049 0.192635 
24.7401 4.9225 0.108001 0.204905 
19.1303 14.9303 0.0312253 -0.0457486 
23.3611 20.136 0.0986218 -0.131103 
25.7321 8.2141 0.122536 -0.0929462 
25.9919 20.6816 -0.0741031 0.113154 
17.2615 18.4334 0.295485 0.0302987 
20.3371 1.2041 -0.0046665 -0.0511856 
22.907 10.3345 0.0144697 -0.136683 
19.2472 8.8529 -0.294207 -0.0203243 
14.9433 17.4964 -0.0151374 -0.197104 
18.5396 10.8974 -0.0925498 0.108995 
17.6747 5.5339 -0.116002 -0.0686723 
17.2261 8.4548 -0.00863226 0.209776 
14.7596 15.6769 -0.0349212 -0.00509651 
17.3207 6.3056 -0.0565303 -0.15029 
23.8944 2.2654 -0.0242022 -0.0726442 
21.8482 6.0605 -0.198392 -0.141544 
19.1492 5.6277 0.0165597 0.0848742 
22.6021 4.9349 -0.16161 -0.373933 
24.3402 12.0422 -0.287742 0.0340756 
22.8572 3.8893 0.0134898 0.013208 
15.4371 10.5695 -0.352435 0.0175035 
21.0037 3.1109 -0.0162764 -0.13645 
18.89 16.3602 0.103487 0.0634964 
21.3139 17.0496 -0.166004 0.12259 
26.1766 3.7424 -0.012013 0.197466 
21.0927 15.4235 -0.0445714 -0.00803188 
18.2946 8.404 0.0484612 -0.0900003 
21.6016 6.8207 0.248116 -0.000126856 
24.6989 10.6964 0.0765515 -0.169388 
17.2958 7.6517 -0.261362 -0.0287326 
26.0005 2.1001 -0.0476094 0.101218 
23.6471 1.5861 -0.0614292 0.0390126 
24.4313 6.4642 -0.0121001 -0.0193054 
20.6957 6.9433 -0.0611106 0.0236358 
21.2579 11.3425 0.0803948 -0.0425543 
14.1063 1.1154 0.106548 0.133799 
19.3494 3.7185 0.124939 0.108487 
14.1651 19.988 0.135941 0.010607 
15.6982 18.8323 -0.0283988 -0.115634 
19.4644 10.1951 0.0562274 0.204868 
27.6882 10.4491 0.00953685 0.0251986 
19.254 16.0839 -0.165346 -0.0269763 
25.0169 18.8627 0.0967424 -0.172081 
19.5347 18.5033 -0.17735 -0.173486 
23.6607 19.4928 -0.117368 0.104845 
21.8148 20.4875 0.131211 0.015568 
17.5694 7.1515 0.185525 -0.00777766 
25.3317 9.8502 -0.201269 -0.0822766 
19.6542 2.1043 0.109515 0.025877 
21.9157 12.3428 -0.00354834 -0.0652101 
22.5669 14.6856 0.079988 -0.141014 
19.7733 11.6217 -0.0937715 0.068738 
19.2817 3.1931 0.0989307 -0.0463735 
19.2116 4.5497 -0.241177 0.093563 
18.9128 12.4696 0.0850907 0.0755655 
18.3501 18.1634 0.0670688 -0.2798 
20.1774 4.5957 0.0234681 0.284111 
19.7885 17.6311 0.0263075 0.0139143 
23.0569 21.1955 -0.0165693 0.00103521 
22.7775 8.4179 -0.0691779 0.144209 
26.0268 15.2059 0.487832 0.258168 
26.838 12.5716 -0.0446869 -0.167071 
21.6947 15.7174 0.272688 0.0131328 
18.4567 12.0059 0.204666 -0.0965459 
14.0189 21.2774 -0.0734393 0.162949 
18.1696 13.356 -0.0499203 -0.0625347 
15.9811 4.0861 -0.110631 0.00586724 
ITEM: TIMESTEP
5000
ITEM: NUMBER OF ATOMS
616
ITEM: BOX BOUNDS pp pp pp
0.0000000000000000e+00 2.8000000000000000e+01
0.0000000000000000e+00 2.2000000000000000e+01
-1.0000000000000000e+00 1.0000000000000000e+00
ITEM: ATOMS x y vx vy 
8.17857 6.39694 0.194413 -4.28259 
13.2666 15.4473 -0.356667 1.10177 
11.9595 9.1746 0.343975 0.764846 
10.0159 16.6622 1.03168 -1.1033 
9.25128 3.69603 -1.06094 2.11362 
5.89952 10.9017 -0.063893 -1.03948 
2.17206 19.8883 -0.417501 4.62739 
2.17866 7.54758 -0.0792049 1.11606 
7.6703 12.0675 0.208533 2.02694 
12.1258 1.42755 1.77314 -0.153234 
4.57523 5.33384 0.65069 1.46174 
7.69144 5.40803 -1.03586 0.584242 
12.0714 4.14121 0.652446 1.2428 
4.10894 18.7748 0.491117 1.69504 
6.17672 18.2287 1.66768 0.863187 
8.93214 15.3672 0.889003 2.06142 
6.659 15.4002 1.25863 1.29578 
5.42361 6.73168 0.570836 -0.669773 
11.0449 3.46841 -1.62085 -0.331081 
8.50914 0.288451 2.26137 0.959955 
7.5177 20.0027 0.758359 -4.17094 
6.43853 7.257 1.08455 0.656922 
12.7519 14.0916 -0.427247 -0.0494689 
6.23856 4.91244 1.27231 0.0940563 
9.96634 19.4299 0.537815 0.571188 
2.18306 20.8914 0.0257384 -0.340876 
7.48701 15.0589 1.0235 1.07773 
13.3426 0.907485 -0.0609706 2.98758 
1.15666 17.8228 0.33096 -1.06788 
13.2926 2.0419 1.76967 -1.73565 
6.83969 10.125 0.745767 -0.102345 
1.9976 12.3896 0.909842 3.77647 
2.23989 0.964562 1.54968 -0.818066 
8.57765 6.11071 1.43622 0.645886 
13.3867 6.71611 0.858713 -1.17229 
8.50198 19.8094 0.66517 0.935767 
8.64695 13.0507 0.957861 -0.266045 
9.57932 5.44787 0.730689 0.280132 
10.5218 16.2829 1.5664 1.14813 
12.8558 17.0936 0.575735 2.23994 
9.73758 0.519445 0.840824 0.110959 
9.61248 4.16616 2.38767 -1.95094 
2.41661 4.40617 0.93829 -2.30595 
4.21548 2.85234 -0.185247 0.0795898 
7.41732 6.30287 0.567498 -0.239703 
11.8765 20.6087 0.550511 -0.487655 
3.79793 19.6801 -1.57807 1.41641 
5.45838 8.62962 -1.95765 0.836272 
13.779 15.9629 0.141353 -1.78647 
12.6187 5.37775 0.59736 -2.85158 
6.44872 12.2529 0.377068 -0.531665 
11.3192 6.35104 -0.100069 -0.93738 
4.52994 17.3434 0.997166 -1.25448 
2.87562 18.3968 1.38964 -0.780734 
4.75138 10.8935 0.630156 0.315366 
10.9792 13.6386 1.02581 -0.841043 
4.52854 2.1812 0.876419 -1.79355 
7.61918 18.0334 1.53256 0.613421 
7.25137 16.494 -0.332071 -1.12373 
13.8873 1.4408 0.822809 1.06766 
6.76354 3.61868 1.08362 -0.704033 
1.59506 7.93801 -0.382562 1.67954 
3.27664 21.1178 0.173893 0.604796 
0.913304 8.32191 -0.658029 -3.79904 
13.7661 5.97284 1.24921 -1.13732 
2.13348 18.2511 -0.253522 -3.45515 
10.553 11.2669 0.515549 -0.0460299 
11.3475 11.5593 0.563875 -0.352961 
9.04991 13.4081 1.57828 0.391855 
0.558268 19.23 0.0726324 -0.79722 
1.87683 2.28692 0.373452 0.883026 
8.68609 5.20708 0.646696 -0.278396 
13.5894 10.3027 -0.0664656 -0.242113 
13.0627 13.355 0.664706 0.0178959 
10.3377 9.53842 1.38339 -1.02404 
7.91394 15.759 1.19266 -1.03504 
6.76656 6.30559 0.809188 2.63629 
6.53488 1.27598 0.0318888 -1.7081 
9.36293 4.6378 1.52232 -0.10016 
10.6084 0.274738 -0.0444417 -0.660555 
12.9677 19.574 1.51528 0.75345 
12.414 6.58492 1.73454 -1.16308 
6.79985 21.6371 0.725468 -0.649918 
13.1666 0.49709 -1.09101 0.586388 
8.43088 10.2657 0.709116 0.692308 
9.27823 1.97068 1.26706 -3.83063 
10.3092 12.7316 1.9204 -1.85319 
1.07657 4.16378 0.312848 -0.131802 
7.78825 10.0545 0.157984 1.14793 
5.68598 15.2558 -1.32587 1.49753 
8.3886 20.4231 0.807595 -1.36546 
9.37267 8.73277 1.96005 -1.72757 
4.78098 12.9622 -1.80043 -1.3542 
4.9792 5.75259 1.0868 0.643021 
13.1202 1.46082 0.0342931 -2.06193 
10.2595 4.95356 0.60794 0.0377579 
5.93355 1.80007 0.913213 0.202858 
13.9095 20.7265 0.117875 0.875569 
8.69149 12.3791 1.60473 1.70923 
4.01743 16.1649 -0.40119 0.313883 
12.3319 21.2756 1.20827 -0.448292 
2.74162 14.3966 -0.93771 0.0989205 
9.13585 10.3834 0.565356 0.463925 
2.62027 11.4532 1.28334 0.616918 
3.14894 20.5459 0.350121 0.180669 
3.57212 17.0234 0.647751 0.0511736 
6.94598 18.1797 0.585256 -0.385936 
8.39084 9.4199 0.096716 -0.0720079 
4.32968 18.1919 0.925208 0.172303 
12.1095 11.1888 0.646637 -0.0673361 
3.61243 12.1139 0.646562 -0.018729 
5.83149 21.5396 0.728908 -1.30941 
2.96041 20.0518 -0.883443 1.08634 
4.38987 20.0839 1.1632 1.13093 
0.134328 5.08981 -0.388985 -2.20264 
5.62558 7.70891 0.643146 -0.247535 
8.11167 18.5557 -0.186345 0.0823868 
10.7892 6.81934 1.35773 -1.81188 
5.01237 4.18255 1.13048 -0.912582 
2.33463 9.40002 0.151376 0.854489 
6.18682 14.9465 0.906813 -0.202883 
0.821204 12.0324 0.0465226 0.629922 
4.72035 4.59084 -0.464146 1.38636 
12.776 3.68094 0.743241 0.544084 
10.9111 7.5965 -0.57606 0.306756 
8.90982 21.5433 1.11184 -0.344187 
8.58742 11.7404 0.664265 0.379247 
12.446 7.09118 -0.0106135 0.803827 
7.71305 16.8808 -0.501037 2.40196 
6.20219 7.59899 0.315572 1.76518 
5.85183 19.2824 0.175485 -0.354865 
6.02464 3.69061 -1.56724 -0.318532 
6.3883 10.5691 2.1647 -2.6736 
1.16568 12.337 -0.121014 -6.18065 
1.14442 5.80117 -0.0191162 0.165775 
6.12362 13.8867 0.139684 1.34324 
13.8346 9.42129 1.22256 -0.323137 
13.1829 9.66197 1.6804 2.98429 
10.9577 12.8195 0.781786 -0.436316 
5.25716 1.86381 0.677089 -0.512646 
8.71796 4.09455 1.09013 0.514409 
4.31527 1.00474 1.1466 -0.799081 
6.71982 5.21785 1.0447 2.41065 
8.84054 8.4782 -0.0367504 -0.575862 
3.60182 0.528974 0.644294 -0.286081 
5.24005 19.7776 0.595176 0.226015 
5.53228 9.22359 0.0884826 1.43419 
7.99293 11.7196 1.87919 0.206804 
8.1322 7.61198 0.304436 -0.20407 
3.43691 10.6863 1.82235 0.11798 
7.65351 3.4675 -1.19349 -0.044005 
7.60745 18.4833 1.3742 5.39514 
13.9085 7.13703 0.479385 0.380073 
13.392 14.2227 0.946531 -0.776316 
11.4286 18.3945 -0.887323 3.06201 
5.65868 10.1146 1.17059 2.22009 
5.31085 12.3607 -0.746485 -2.01798 
7.15493 14.2685 -0.220251 -0.664892 
6.74497 20.7485 -0.109765 -0.682468 
10.1392 10.7438 1.22734 1.81005 
11.1181 21.0477 0.0501298 -1.62998 
7.14301 6.85104 2.07301 0.415806 
4.11122 6.26577 1.81762 0.448861 
1.28469 13.3896 0.194024 -0.713059 
11.6414 14.636 0.366205 -1.47865 
3.34211 14.8234 0.333321 3.99248 
6.73628 12.8795 2.41309 -0.898517 
13.1242 14.8133 1.01992 -2.33191 
2.98417 1.27752 0.499553 0.398387 
10.5594 8.41286 1.40854 -1.13635 
5.31673 21.8058 -0.00741542 -0.912883 
3.23071 7.15968 -0.660231 0.680644 
3.9077 1.44425 0.260702 -0.86019 
8.69991 18.3067 0.682048 0.0678185 
2.69271 7.11065 1.05615 0.364506 
13.1866 5.93257 1.06465 0.612679 
7.50206 0.183216 0.00306712 0.495463 
2.01819 6.64119 1.14039 0.528694 
10.7393 17.847 1.64635 -0.264304 
4.91288 10.0059 0.364351 -0.0596592 
3.8659 14.3917 -0.535241 -2.911 
8.30359 20.9124 0.661183 -0.498819 
5.71621 18.3779 1.1625 -0.775549 
13.1508 12.56 0.699498 -0.463673 
9.28227 18.8927 0.940018 0.905012 
11.3008 8.61132 0.653254 -0.29433 
9.88789 10.0567 1.31556 2.02883 
9.98848 3.8496 1.66959 -0.073871 
9.85353 13.1695 0.536968 -0.187546 
4.15581 21.1607 1.90966 -0.837802 
7.18111 4.26633 1.04333 1.21058 
13.5493 3.85822 -0.00126757 3.36065 
6.12169 8.01057 0.759582 -0.387451 
2.75171 5.10927 0.917217 0.675278 
1.01836 4.98183 -1.41886 -0.186295 
13.9802 12.1823 1.09214 0.708803 
13.3643 16.5249 0.466921 1.53955 
8.53418 16.5338 0.973622 -1.03377 
8.24687 5.67796 -1.00196 -2.0878 
9.03115 10.9951 -0.0129989 3.90008 
3.59849 9.63354 0.67755 0.749106 
5.01935 16.2399 1.34774 -0.632675 
12.9652 18.5763 0.519398 0.0211078 
1.00409 11.2443 0.182865 -0.382837 
10.2951 14.4206 -0.164674 -2.22831 
3.38967 5.87714 0.973075 0.138387 
11.134 0.85259 1.07783 -0.549411 
10.2288 1.72773 0.400486 -1.29297 
7.55999 11.2901 -0.794786 -0.117225 
2.09909 19.2327 -0.486606 1.34131 
1.37491 19.164 0.207072 1.03888 
12.792 11.6931 0.667596 -0.112561 