ITEM: TIMESTEP
0
ITEM: NUMBER OF ATOMS
1568
ITEM: BOX BOUNDS pp pp pp
0.0000000000000000e+00 2.8000000000000000e+01
0.0000000000000000e+00 7.0000000000000000e+00
-1.0000000000000000e+00 1.0000000000000000e+00
ITEM: ATOMS x y vx vy 
8.8097 6.2379 0.0188682 -0.0469316 
11.9112 5.6627 -0.124411 -0.372541 
1.831 4.1011 0.123602 -0.21163 
11.233 5.3792 0.0967816 -0.123571 
0.804 4.9984 -0.0372191 -0.0361948 
7.9472 2.438 0.0408383 0.116762 
9.5953 6.277 -0.189721 -0.00741606 
2.1615 3.5176 0.115374 -0.0191963 
3.6398 5.9447 0.0233436 -0.151305 
1.3768 0.8387 -0.0870399 0.242102 
3.0138 4.1813 -0.0935215 -0.145572 
13.6988 2.5601 0.00536232 -0.152896 
10.9078 4.02 0.0266393 -0.0228745 
4.6628 3.2565 -0.1252 -0.0661624 
6.0848 6.3103 -0.238051 0.0531583 
11.9799 3.2556 -0.217621 -0.0776832 
1.7586 5.1426 0.242223 -0.316739 
6.6896 2.5373 -0.0235405 -0.0346642 
4.9334 6.5719 0.146015 0.10498 
3.6333 3.7929 -0.0540363 0.0874707 
6.2555 6.586 -0.153063 0.136843 
4.8329 4.3499 -0.121796 0.143212 
5.1347 6.377 0.0715657 0.171031 
4.0323 5.1181 -0.213577 0.0942535 
11.5931 5.8663 -0.0835463 0.0194321 
5.0547 1.5051 0.0549124 0.330344 
5.6167 0.9201 0.0398787 0.108059 
6.714 1.5468 0.138439 -0.0954086 
13.2565 3.5171 -0.07115 0.125754 
3.552 6.345 -0.233083 0.133671 
2.1884 1.6625 0.0727787 0.229565 
3.0397 4.573 0.0119399 0.00135095 
10.9121 5.467 -0.227457 0.19011 
1.5064 5.8911 0.173436 0.139225 
9.5436 4.1474 -0.108738 0.0400295 
6.1144 3.9755 0.25985 -0.243905 
4.7064 1.6048 -0.095261 -0.123682 
3.7431 4.0711 0.0408264 -0.029702 
8.0045 5.7895 -0.267658 0.127219 
7.6063 4.1908 0.204998 -0.036693 
11.0079 5.7178 0.0599653 0.00597443 
4.8628 2.3228 -0.00747074 -0.0172794 
13.7297 3.6492 0.0346468 -0.156036 
2.236 2.0726 -0.180977 -0.177982 
0.7687 3.7717 0.0484982 0.209709 
6.9612 1.7505 0.27675 0.247431 
11.9818 6.3966 -0.0722487 -0.124075 
7.0068 3.0121 -0.166141 0.0498931 
4.4728 3.8037 0.0157639 0.0427584 
13.426 4.5869 -0.1185 0.0588456 
10.0444 3.1021 -0.108148 0.0592564 
4.8727 0.7966 -0.420488 -0.255911 
11.2339 6.0522 0.176086 0.16594 
9.5396 1.7264 0.030902 -0.243308 
7.8838 0.6045 0.00676596 0.205157 
6.9965 4.7517 -0.000327525 -0.014366 
2.8464 3.9157 0.00488157 0.286086 
6.36 5.6273 -0.0425032 -0.101811 
7.0581 3.7528 0.0694385 -0.0342145 
2.5765 6.1559 0.00180259 -0.114491 
1.5922 4.44 0.0156034 -0.18474 
9.3203 1.7131 0.118046 0.224674 
4.4045 5.3258 -0.0171548 -0.356518 
4.624 2.6568 0.226831 0.134831 
8.7521 6.6624 0.16101 -0.0877025 
5.5989 4.5374 0.212613 -0.0554991 
7.4042 5.0447 0.145074 0.0393102 
8.9161 4.9957 -0.0814398 -0.107359 
11.1782 4.3304 -0.207501 -0.044862 
6.5302 1.1917 0.0688954 -0.192837 
2.8283 3.0735 0.0662843 -0.235889 
1.5589 1.1184 0.04423 0.0562671 
11.9871 3.9563 0.125651 0.0186008 
0.8216 1.0955 0.181893 -0.0911572 
3.8068 4.3623 0.0143049 0.175338 
4.1574 1.7889 -0.0847918 -0.131791 
1.3244 1.9017 0.119497 0.204831 
13.9473 1.959 -0.0693011 -0.0704329 
9.1559 2.7493 0.187201 -0.047021 
12.5838 1.7563 0.256626 -0.0649866 
8.5149 3.8508 -0.167865 -0.0480944 
10.6661 5.2892 0.0722713 -0.0206373 
10.4655 6.1129 0.0507488 0.032268 
3.2374 4.6319 0.0774727 -0.0639894 
2.5377 2.5464 0.0517846 -0.0420509 
9.0041 5.4799 0.160469 -0.00582894 
9.9247 6.6414 -0.045653 0.222388 
5.1785 0.5343 0.0414843 0.122752 
1.0486 2.033 0.0979334 -0.1491 
3.1576 0.7257 -0.0913381 -0.136974 
1.2485 5.5194 0.0112416 -0.166553 
13.6932 6.0646 -0.188273 0.0186635 
8.6682 1.4498 0.0135324 -0.0656249 
4.6869 3.4597 0.0926079 -0.137418 
4.6252 5.2778 -0.0702665 0.189881 
5.5487 2.5168 0.0126586 0.0406392 
6.9739 6.4468 -0.207818 -0.0118859 
4.808 5.0039 -0.160219 -0.0509989 
7.8017 0.8125 0.0402703 0.0730776 
7.5768 3.1861 0.248188 0.00818853 
11.8832 5.2127 0.108831 0.212914 
12.4435 4.356 -0.182218 -0.0405574 
7.7963 5.2781 -0.0123509 -0.198514 
6.4361 2.961 -0.151533 0.0452046 
3.867 2.0162 0.0486224 -0.0528534 
0.7303 5.6363 0.168951 -0.17175 
9.942 4.7598 -0.147154 -0.0196948 
9.4515 5.0121 -0.0326594 -0.103367 
2.5654 3.2029 -0.0158355 0.093416 
1.5048 5.0118 0.0469536 -0.0699182 
4.3054 3.6734 0.215564 -0.131251 
7.3577 3.7113 -0.0295003 0.00745933 
12.6315 6.1661 0.0086894 -0.057337 
3.5662 2.9257 -0.201292 0.208722 
13.6526 4.6802 0.119303 -0.0130099 
2.2999 4.8374 0.134609 0.148208 
4.1268 4.3557 0.133703 -0.0231603 
3.3744 1.4734 -0.235018 0.00500299 
12.5529 6.6804 0.0244431 0.16652 
7.4439 2.742 0.145252 0.172918 
12.9044 4.0272 0.0430425 -0.0203013 
9.9726 6.0576 0.203533 0.0781882 
11.028 1.5232 0.151623 -0.109639 
10.3591 1.9441 0.0300335 -0.240882 
1.0032 4.3533 0.13152 -0.0149072 
2.6776 4.313 0.328768 0.0205143 
5.9688 6.7799 0.046731 0.0760631 
11.6841 6.2107 0.0359554 -0.144816 
9.6819 1.4367 -0.0248095 -0.0209204 
11.4759 4.2106 -0.0449164 0.138079 
10.6354 3.6914 0.110676 -0.114588 
11.7801 4.2803 -0.18531 -0.0865306 
13.3237 1.3857 0.173877 -0.0435451 
6.4649 6.4991 0.191342 0.106329 
8.5465 6.2257 -0.115875 0.0786059 
7.4761 5.769 0.25886 -0.0654058 
12.5332 3.5802 0.150665 0.0429004 
1.2885 3.4735 -0.215592 -0.0380088 
3.8177 2.6564 -0.150153 0.0344295 
13.4264 1.7586 -0.0572203 -0.117313 
13.7623 5.8331 -0.0612108 0.0595177 
7.5634 3.5248 -0.103304 -0.180107 
1.7501 6.5726 -0.0930374 0.00643364 
5.2305 1.9951 0.143859 0.0615634 
1.631 5.5884 -0.0462098 0.0757905 
2.3623 1.8482 -0.0554165 -0.214669 
5.487 5.1685 0.12822 0.133967 
2.5931 0.6 -0.0450585 -0.0825991 
8.5555 2.9641 -0.150389 0.176453 
11.5138 6.4655 -0.123734 0.147733 
8.3965 4.1757 0.0897509 -0.337196 
11.6715 5.3963 0.0248358 0.287315 
5.7031 6.7433 -0.124702 -0.0242496 
7.9209 4.8044 -0.037262 0.208503 
7.2548 1.1725 0.177749 -0.245135 
9.8634 5.1679 -0.121993 0.0311599 
1.4348 4.0779 -0.0416399 0.0481893 
0.5836 6.7539 0.0632516 -0.104872 
5.3867 4.8309 0.112277 -0.0294028 
3.0737 5.4893 -0.0432147 -0.0711562 
7.347 3.2271 0.0254303 -0.171981 
2.8729 5.749 0.0380889 0.0261513 
12.1008 1.4457 -0.014352 0.195395 
12.8488 5.5315 -0.00671094 0.0383411 
2.5175 5.4371 0.0349756 0.107791 
7.4712 1.8007 -0.171919 0.122167 
8.06 6.4538 -0.0738695 0.090074 
0.6067 4.7936 0.00410016 0.185204 
8.1935 2.0245 -0.22318 -0.128574 
1.4539 2.5747 -0.0749027 0.26073 
13.7194 4.3709 0.101255 -0.333744 
12.6291 4.6996 0.0259118 -0.322915 
13.6227 3.3791 -0.21302 -0.260106 
13.1503 0.8236 0.13937 -0.145761 
7.4971 0.9002 0.218822 0.0778351 
7.06 3.2373 -0.0500634 -0.00620206 
3.9283 2.9239 -0.206822 0.113541 
11.2611 1.3675 0.226314 -0.163901 
6.4647 5.4206 0.0568316 0.0912781 
7.0167 5.3745 -0.147806 -0.109737 
0.8592 3.1158 0.0855157 0.303714 
13.0785 4.9854 -0.0870941 -0.11088 
8.7632 2.8876 0.128832 0.141614 
1.6136 3.7951 0.0176426 -0.0203568 
3.1602 3.3013 0.176486 -0.155411 
2.0149 2.0022 -0.00449312 -0.0636685 
13.6079 6.7595 -0.138764 0.181077 
12.0891 6.7157 0.0723846 0.0812866 
13.1657 3.0696 -0.159931 -0.151367 
1.0916 1.4465 -0.016912 0.0738321 
12.1814 1.9097 -0.236221 0.0204603 
3.3477 2.9156 -0.161711 -0.0916078 
13.2743 1.9912 0.220239 0.135893 
2.3673 4.1613 0.129791 -0.160071 
1.0845 4.9006 0.0314 -0.179229 
10.8029 0.8734 -0.0257929 -0.193202 
1.1399 5.3059 0.0200503 0.0659136 
9.968 0.8506 0.143998 -0.114943 
13.1 1.8106 -0.0738728 0.20916 
4.5386 2.3199 0.126521 -0.0443004 
7.0969 1.4392 -0.249966 -0.105072 
11.7655 1.0411 -0.0262113 -0.244471 
11.0552 1.0348 0.108099 -0.0689318 
13.6576 2.1561 -0.061068 -0.0398881 
6.9312 4.4517 0.0748631 -0.160917 
1.1809 5.7995 0.176868 0.0109276 
1.783 2.6036 -0.132609 -0.0813246 
11.7893 1.962 -0.0341908 0.0624274 
4.8706 5.7702 -0.0983019 -0.062037 
11.4137 0.6186 -0.0924944 -0.214602 
11.8866 2.5833 0.0504089 -0.0584172 
3.3207 2.473 0.281922 -0.0897656 
12.4936 3.8343 0.176648 0.066269 
8.5353 5.7567 -0.311692 -0.258053 
9.728 0.8893 0.184615 -0.226709 
13.9541 5.9819 -0.000583343 0.154756 
7.7388 2.6062 -0.0350558 0.153518 
4.6438 0.8373 -0.038031 -0.151836 
1.8571 6.2676 0.173197 -0.0485812 
10.8005 3.026 0.450319 -0.244813 
4.6257 0.5221 -0.181047 0.0282686 
2.8663 2.7153 0.000677424 0.239812 
4.7215 5.6138 -0.110087 -0.0602114 
11.7872 0.5419 0.17378 -0.0822746 
1.9417 3.786 -0.203794 -0.00551581 
10.4875 3.5372 0.113624 0.0912681 
3.1484 4.3418 0.155624 0.0890394 
11.6491 1.2454 -0.0722839 -0.0524784 
2.8309 0.5995 -0.0454161 -0.219379 
10.4104 3.253 0.0117569 0.0323835 
4.2383 3.8825 -0.0673184 0.0602605 
8.985 1.8501 0.178483 -0.197592 
1.239 3.7087 0.0182434 -0.147322 
3.8569 1.7455 -0.116692 0.0840032 
12.3306 1.0017 -0.280665 0.0602193 
7.3721 6.6765 -0.0378235 -0.0415954 
4.7454 6.4474 0.298154 0.168259 
7.6162 4.9748 0.346294 0.104059 
9.1615 4.1004 -0.0533272 0.0884426 
0.6509 3.9745 0.135108 -0.17465 
3.8161 6.7068 0.241294 -0.111329 
7.3859 5.9969 -0.00463551 0.0260357 
0.6673 3.5126 0.0353405 0.038899 
6.7161 1.8638 -0.106212 0.126341 
5.7197 2.271 -0.0031298 -0.149864 
13.0146 0.5031 -0.0309391 -0.118455 
13.3868 5.1094 -0.0173616 0.141194 
2.9365 1.4238 0.132443 0.043675 
0.5794 1.042 -0.0647866 0.124272 
7.9292 1.0626 -0.145195 -0.12035 
4.9976 5.9352 -0.105189 0.282252 
6.2209 5.1091 0.2646 0.0594132 
6.0232 2.3975 -0.166946 -0.0548547 
11.9466 3.6828 0.00694124 -0.0972971 
0.7881 2.0917 -0.0442199 0.0856749 
3.7026 3.2615 0.101248 -0.442708 
8.4281 3.1626 -0.0712109 0.0870299 
7.1403 4.4991 -0.143401 0.122419 
10.6414 1.4945 -0.0102921 -0.018902 
10.6857 1.9435 -0.142383 0.146661 
12.1204 5.2872 0.0525719 -0.306271 
2.8897 0.9655 0.0142352 0.0857901 
12.3955 3.3068 0.0992089 -0.33093 
2.4948 3.8981 -0.355961 0.0562965 
6.3618 2.4 0.076287 0.156326 
4.8353 1.9107 -0.0170284 0.116039 
6.7128 6.4393 0.139917 0.0341763 
7.9166 4.3005 0.21828 -0.0014439 
5.4796 1.875 -0.0561576 0.0366214 
6.5432 5.9542 -0.0439625 -0.18009 
4.7811 6.7755 -0.0791349 0.0801948 
8.6612 0.6689 -0.0315315 -0.114425 
13.9495 6.1973 0.0122282 -0.005673 
7.5497 1.2386 0.158387 0.277263 
10.2959 1.2089 -0.204669 -0.0805297 
10.3841 0.8703 0.006853 -0.0747966 
9.8063 3.1074 -0.05848 0.21526 
9.3196 2.4025 0.0676237 0.0942624 
1.6148 1.3903 0.188067 -0.101595 
3.1761 1.8639 -0.279018 0.0918051 
5.677 6.2764 -0.0902945 -0.0155536 
3.5759 2.652 -0.0702218 0.0319445 
10.9498 4.5787 -0.0888721 0.192663 
13.233 6.1709 -0.00832582 0.344938 
13.8806 1.0123 -0.172952 0.177525 
8.1337 3.6226 0.120596 -0.271492 
4.4619 0.7286 0.256367 -0.0196392 
11.7896 4.5456 0.375799 0.138027 
4.0588 3.4263 -0.0109578 -0.253909 
7.9841 2.0974 -0.0652917 -0.0564424 
9.7408 2.1924 -0.0509138 -0.117652 
9.4798 1.4547 -0.0133581 -0.0812103 
13.3349 6.7063 0.0809012 0.145529 
12.5943 5.5616 0.0747335 0.133174 
3.606 4.915 -0.0189293 0.0492878 
0.9391 4.0799 -0.219593 0.0862325 
1.5296 0.6527 -0.172288 -0.141959 
13.0764 2.1262 0.115716 -0.191677 
9.3998 3.9303 0.15919 -0.0451609 
2.2765 3.0771 -0.101055 0.0613757 
8.1587 6.0896 0.1693 0.072376 
0.9957 3.4667 -0.183801 -0.0324066 
6.804 3.5214 0.196208 0.25059 
4.8379 4.7007 0.0536896 0.3336 
4.9433 3.4828 -0.00487136 -0.129345 
7.7483 1.4958 0.0775307 -0.00731915 
12.9197 1.0351 -0.225283 -0.0555905 
5.7127 5.2991 0.0397842 0.0497193 
5.6787 0.5221 -0.0633853 -0.25988 
9.2604 4.3393 -0.00284785 0.234641 
10.8744 6.1112 -0.0939369 -0.0221684 
3.6586 2.3137 -0.0718804 -0.00512188 
2.716 5.2006 -0.104143 0.106611 
9.7256 5.5805 0.0994687 -0.0334056 
0.9656 2.8669 0.163972 -0.00163381 
6.7528 5.3702 -0.148246 0.230136 
9.5819 2.7361 -0.00330696 0.0648622 
2.1898 5.8894 0.0528262 -0.0218512 
13.7472 5.4539 0.162135 0.0249063 
8.1203 4.1719 -0.23105 -0.135501 
2.7542 4.7581 -0.258659 -0.0776616 
2.142 6.1569 0.0124182 0.134863 
5.5099 1.116 -0.124899 -0.0710987 
13.6964 1.3437 0.160258 0.107364 
8.7607 5.5457 0.0286419 0.0610344 
2.2695 2.4202 0.225624 -0.0694655 
11.7824 3.9871 -0.0210597 -0.000243419 
8.4436 2.6912 -0.0221407 -0.11114 
6.6762 5.5807 -0.232362 0.0633452 
10.6255 6.2651 -0.270047 0.000213209 
8.4934 1.8319 0.259528 0.104723 
1.228 6.5387 0.00666782 0.00823135 
4.0288 1.1247 0.0954332 -0.000793225 
1.7708 4.8764 0.0778037 0.192728 
8.2888 5.2799 -0.219222 -0.0719626 
13.6369 5.0572 0.0899519 0.188186 
13.7085 6.4913 0.258163 0.0346577 
3.685 0.6891 -0.14379 0.0520335 
12.8287 4.7963 0.224051 -0.0033334 
4.0855 2.694 -0.0143954 -0.293631 
3.0833 6.0389 -0.0145903 0.284959 
11.3704 2.6378 0.0809065 0.127794 
12.3889 5.5937 0.0356659 0.273284 
8.0678 5.0543 -0.0883237 0.109027 
0.6941 2.7757 0.29083 0.0550471 
2.8419 5.4863 0.00597711 -0.084617 
6.4587 3.6739 0.0673629 0.023117 
8.4516 1.563 0.0564099 0.149038 
3.7176 6.1942 -0.176477 0.120297 
4.9786 5.4192 -0.0426622 0.0691634 
4.2378 1.169 0.0202691 0.00924626 
11.7321 3.4198 0.0597598 -0.234875 
2.5627 4.1112 -0.0364325 0.0413447 
11.3785 3.4702 -0.151218 0.0798772 
2.9798 1.1806 -0.0440656 -0.0860988 
1.8091 0.9737 0.043061 -0.282777 
5.3727 2.3374 0.135966 -0.310275 
3.3305 0.5578 -0.104774 -0.120965 
7.7693 3.3938 0.120102 0.340516 
6.5263 3.3425 -0.157891 -0.0593543 
12.3465 0.5868 0.0441898 -0.0366646 
0.8129 5.296 -0.0335212 -0.113861 
6.1348 3.4806 -0.000913868 -0.0727178 
12.7275 4.1862 0.0158507 -0.164671 
4.944 2.9111 0.331578 0.109149 
2.7366 1.7965 -0.0337434 0.172112 
0.7626 6.4295 -0.0198839 0.0965713 
1.9225 5.4701 0.0787655 0.079358 
2.9134 6.1592 0.0509834 -0.0923693 
6.828 4.0539 -0.129644 -0.122562 
12.8012 3.442 -0.106664 0.0586702 
11.3401 3.1638 0.128643 -0.0815836 
12.728 0.622 0.130822 -0.0352162 
8.6675 2.1155 -0.163107 -0.119943 
4.4017 3.0933 -0.1156 -0.165209 
2.9341 1.7284 -0.0449835 -0.123587 
11.5849 1.5529 -0.218864 0.343608 
4.6646 4.8233 0.274348 0.380545 
3.0987 2.7932 -0.20208 0.0668236 
4.1367 0.5499 0.0277999 0.186345 
6.0505 4.7839 -0.0561635 -0.105728 
2.4773 1.4673 -0.182933 -0.120956 
7.4617 2.07 0.112208 0.0690296 
5.0604 3.1063 0.143275 0.123145 
1.3329 3.1328 -0.0522202 -0.0104858 
13.1849 5.855 -0.0135699 -0.0641614 
10.0448 0.6123 -0.0828144 0.18844 
12.9912 6.05 -0.145459 -0.196676 
4.1453 5.3969 -0.0146826 -0.0298355 
2.4869 2.3022 0.0506778 0.0123209 
6.3904 4.5274 -0.0686043 0.150303 
3.5333 3.974 -0.294492 -0.156169 
3.3643 2.7123 0.0169364 0.295733 
11.9042 5.9735 0.0104044 -0.0722505 
1.4507 5.4375 -0.0025658 0.0400067 
13.4646 3.7833 -0.23258 -0.0920308 
9.9066 1.0599 -0.0207073 -0.0589145 
8.983 0.5247 0.00534945 -0.0273969 
5.3858 6.6066 -0.056884 0.0813644 
13.6169 0.7234 -0.104285 -0.0161395 
13.3741 2.6235 0.0578182 0.0720346 
10.9392 6.565 0.163336 0.133752 
4.5055 6.1001 0.17734 0.0757952 
12.6034 3.3018 -0.0415895 -0.17113 
6.4607 6.702 0.0124752 0.152712 
8.285 2.8177 0.232919 0.113863 
12.4001 6.1454 0.0531985 0.0457913 
6.5225 1.6378 0.0479486 0.0322544 
5.8717 4.1195 -0.0549429 -0.0881198 
11.0993 2.1038 -0.0581606 -0.180502 
5.2605 1.1804 0.0140894 0.0671726 
6.6934 1.0742 -0.354239 -0.0277376 
9.8774 4.4224 -0.109168 0.0709255 
10.1045 4.0177 -0.00680993 -0.148519 
5.5878 3.1901 0.166658 -0.173547 
7.5646 3.8535 0.159208 0.144499 
11.3466 5.0403 -0.237937 0.248987 
6.8107 6.0081 0.132005 0.171388 
10.3882 6.7524 0.0333127 0.0353975 
13.4455 4.9052 0.198346 0.0386872 
10.0881 1.5703 -0.0635688 0.014537 
7.5432 6.41 0.270766 -0.266633 
5.9647 5.5587 -0.330716 -0.257972 
2.2206 5.4219 -0.111934 0.0580455 
4.5764 1.0917 -0.128618 -0.0433677 
3.8237 5.6828 -0.118574 -0.00177032 
13.9564 4.094 0.00551902 0.0838984 
13.5224 3.1902 -0.0748604 -0.204851 
6.115 1.7894 0.0516175 0.28488 
7.8558 3.9241 -0.367533 0.00826045 
4.3848 6.5889 -0.112587 -0.0614342 
0.5854 2.9551 -0.148448 -0.201133 
3.8953 2.4091 -0.0329314 0.219574 
8.8897 4.7358 -0.0341413 -0.0781075 
2.3674 5.5841 0.146654 0.0121266 
7.7434 5.7397 -0.0870272 -0.0171073 
13.5105 6.5205 0.0873207 0.190721 
13.9282 5.5533 0.0350572 0.0206486 
5.8378 3.383 -0.463055 -0.259137 
8.5289 1.046 -0.1747 -0.173126 
12.7672 2.1612 0.218081 -0.228268 
4.6527 4.1662 0.125351 0.179396 
13.6993 1.8883 0.24971 -0.190469 
7.3681 4.719 0.293123 0.00773167 
3.4581 5.4435 -0.209451 -0.094052 
13.106 4.221 -0.0170298 -0.0150109 
9.3549 0.5912 -0.0322996 -0.00307374 
2.687 2.3863 0.146931 0.067086 
7.4208 4.0547 -0.226015 0.310789 
10.7682 4.9704 0.299023 0.245928 
5.3138 2.7628 -0.359147 0.0785866 
12.1214 4.5202 -0.150781 -0.112669 
7.832 4.5347 -0.0665301 0.20791 
8.3824 6.4365 -0.0748695 -0.0305982 
1.1326 1.7779 0.0460024 0.239415 
5.2389 5.5323 -0.0265666 -0.294336 
2.2858 6.3088 -0.141737 0.205792 
2.2744 4.4418 -0.0372125 -0.0862859 
6.348 5.8496 -0.0749784 -0.149705 
7.1599 1.9842 -0.0897948 -0.0146841 
9.5027 6.6405 0.0325517 0.142056 
13.7494 2.9398 -0.123204 0.178723 
7.491 2.3083 -0.0503143 0.241119 
6.6474 4.2935 -0.0268103 -0.129325 
10.3872 5.4386 0.145463 0.0710264 
6.1872 3.0992 0.068876 0.031043 
9.1133 5.1929 0.248133 0.137762 
1.1328 0.8615 -0.22935 0.0524405 
9.1425 3.1869 -0.165085 -0.0730252 
5.9887 1.5859 0.0367838 0.125056 
2.1884 5.1266 0.0447624 -0.0738929 
1.3262 2.386 -0.063699 0.0742928 
4.2365 4.9856 -0.091949 -0.101445 
13.4052 4.1917 0.0763643 0.127305 
7.8766 6.7251 0.135775 0.0362544 
5.4687 3.0293 -0.301892 0.193576 
2.0777 2.3208 0.0420793 -0.098754 
8.2106 1.5215 -0.0961598 -0.0508734 
5.3141 4.2538 -0.00929394 -0.0885539 
8.5049 4.3669 -0.0292639 0.118267 
0.9776 1.2643 0.0662768 0.0312995 
2.3656 0.6796 0.227069 -0.161387 
8.8656 1.6109 0.0915771 0.222467 
8.4047 4.6112 0.130608 0.132898 
2.4995 4.6542 0.130676 0.00780542 
6.2372 2.8373 0.0606178 -0.171688 
2.109 0.5124 0.0148792 -0.0987733 
2.0198 5.2562 0.035859 0.200533 
10.6239 1.7527 0.111662 -0.0566495 
12.5892 4.9587 0.108491 -0.00318043 
4.9902 2.5798 -0.0973765 -0.0587571 
4.4858 5.8725 0.134432 0.248328 
13.5944 2.8116 -0.199858 -0.187302 
0.7791 1.3015 0.046279 -0.147201 
6.0103 5.7562 0.179808 0.240269 
5.0466 1.9058 -0.084203 0.081863 
12.9903 5.2434 -0.0592964 0.120598 
3.6916 3.5995 0.0448237 0.050865 
7.7144 1.8085 -0.233314 -0.0436381 
11.4356 3.7871 -0.285555 0.00546885 
12.862 2.7112 0.0580633 0.134143 
4.8428 5.2304 0.0517878 0.129412 
8.4698 2.2582 0.13332 0.0696495 
6.4746 6.2593 0.18046 -0.00666826 
8.3473 0.7689 -0.0584444 0.0436513 
8.7853 4.1029 0.00229153 0.0659784 
5.9168 3.8291 -0.087122 -0.00294618 
0.5016 3.3803 -0.057179 -0.0138658 
3.8745 3.7641 0.102026 -0.0113022 
11.348 0.8939 0.0625875 -0.116763 
9.4365 5.6209 0.165969 0.0349876 
13.1063 3.9617 0.112174 -0.0388024 
3.1024 1.6106 -0.0299912 -0.0690851 
3.0991 6.6262 0.0491978 0.406438 
11.8165 4.9804 -0.0336494 -0.0445227 
9.4107 6.0708 -0.0430662 0.108352 
8.9967 4.4669 -0.0122008 0.0336615 
12.4288 4.5809 -0.0161311 0.0159977 
0.7424 4.4333 0.164631 -0.00495236 
12.3663 2.1851 0.00957046 -0.000778446 
6.3829 2.012 0.189972 0.237675 
5.5979 3.5896 0.138925 -0.121063 
9.2332 6.2632 0.0970116 0.0697409 
6.0903 1.1165 -0.00368166 -0.146964 
1.5369 1.6857 0.121039 0.0064053 
6.8744 0.5192 0.0198528 -0.35117 
2.0941 2.6687 0.0848183 -0.097056 
4.4076 5.5843 0.167346 0.0609475 
9.7718 1.9332 -0.0530269 -0.111565 
4.6926 3.9435 0.160487 -0.140532 
10.513 1.1598 0.00435931 0.0430926 
13.9899 4.862 -0.142324 0.381506 
8.7099 4.5061 -0.169877 -0.222116 
7.4955 0.6806 0.0749652 -0.054387 
5.821 6.003 -0.105587 0.0140345 
10.5177 2.355 0.0560612 -0.147803 
12.0836 2.8533 0.168475 -0.025843 
2.5676 6.3702 0.287835 0.100618 
7.0324 2.6415 0.0612172 -0.0117373 
4.5185 1.8331 0.286422 -0.171903 
7.2866 0.8158 0.20847 0.0724072 
13.0168 3.5153 -0.187988 0.0504421 
8.6183 6.4574 0.081955 0.134277 
8.8123 3.2241 -0.249407 0.0278793 
7.9302 3.6064 -0.0852821 0.0379097 
11.8015 2.3797 0.244806 -0.18818 
7.1325 6.2765 -0.00272309 0.0246747 
0.6048 4.1886 0.0630682 -0.227297 
3.3776 4.7988 -0.12166 0.255245 
7.6302 4.5692 -0.0228452 -0.0619499 
3.7094 5.2276 -0.110486 -0.0690559 
6.5759 4.7196 -0.0546492 -0.0365655 
8.7477 2.6322 -0.0203814 0.0125863 
10.1058 1.2845 -0.0809829 -0.221921 
4.2963 2.6073 -0.142686 -0.125852 
3.9852 6.5283 0.0421966 0.317103 
12.1137 5.7178 -0.166144 0.126346 
8.8331 5.3502 0.205824 0.11935 
10.8736 2.0233 -0.326611 -0.188263 
12.6086 1.1251 -0.026562 -0.00371563 
10.2848 4.1756 0.250647 -0.147361 
10.9264 3.5113 0.148337 -0.210406 
10.8587 1.7439 -0.0140911 0.106751 
10.2174 2.159 0.0374303 0.160111 
9.3197 1.1104 0.0431865 0.221452 
8.822 0.8214 0.117625 -0.0819828 
6.823 1.3107 -0.0821263 0.0829344 
11.2848 4.602 -0.155335 -0.149637 
1.6741 6.0198 0.201674 0.0391316 
5.6899 2.7975 0.00191927 0.0578621 
1.6261 0.8386 0.104755 0.0315136 
11.1553 0.618 0.198307 0.0954574 
4.1129 6.1359 -0.140667 0.111826 
1.878 3.2558 0.0777313 -0.225907 
13.0942 2.7627 -0.0181547 -0.0292854 
5.1171 5.007 -0.354662 0.108432 
11.7206 3.6963 -0.0010432 0.10541 
4.4067 3.3342 0.095729 0.191866 
3.3289 3.4934 -0.213239 0.0526417 
9.6473 5.262 -0.13168 0.350267 
8.933 1.1574 0.213027 0.0137327 
9.7887 3.6626 0.0809355 -0.0484454 
0.9777 0.6732 -0.0687137 0.024397 
11.4616 5.567 -0.170741 0.130701 
10.5884 2.848 0.102321 -0.067135 
5.4189 0.8346 -0.234783 0.128497 
11.6204 1.7531 -0.0845871 -0.133477 
5.1981 3.9791 0.203252 -0.0173261 
9.2674 1.9259 -0.388137 0.200666 
2.9806 3.6009 0.0435141 -0.173812 
9.6738 4.3015 0.293977 -0.172308 
8.9889 2.4453 0.0317064 0.139634 
8.7004 5.1925 -0.120423 -0.237598 
13.5087 1.0235 -0.178061 0.0984034 
7.714 6.2694 -0.050882 0.277583 
8.2356 2.5791 0.0761329 0.0785473 
11.1701 3.5035 -0.0779605 0.0329136 
8.2829 5.6721 0.019163 -0.230313 
2.4834 3.489 0.18186 0.00548056 
10.7178 4.3872 0.275451 0.0387987 
3.1138 0.9453 0.0700509 -0.133942 
1.092 2.2423 -0.292701 -0.0719295 
10.6682 5.9673 0.255903 -0.022311 
3.4456 4.4411 -0.240777 0.0259168 
5.2326 5.1763 0.454272 0.0352906 
6.9373 1.09 0.0300779 0.0794112 
6.4568 5.0885 0.0343694 -0.18397 
1.8552 2.9154 0.049863 -0.0259236 
6.002 0.5911 -0.0259128 0.318825 
0.524 1.5189 -0.0627638 0.108468 
5.7525 5.6571 -0.0696903 0.0596565 
12.4076 6.539 -0.00418311 -0.195001 
4.2089 5.6103 -0.128344 -0.0431627 
12.7818 3.0359 -0.0517043 -0.0321788 
5.3932 6.2412 -0.22053 0.0936275 
11.2135 5.6383 0.0140211 0.0353679 
2.7888 3.3842 -0.193471 0.0406443 
5.8766 2.0587 -0.163286 0.199252 
11.6197 0.8359 -0.0667923 0.20264 
9.0453 3.93 -0.0873865 -0.0203226 
11.2602 3.9098 -0.309072 0.0343698 
9.7218 5.9565 -0.0264072 0.0885802 
11.4685 4.8528 0.210086 0.231138 
10.1391 2.6339 0.099812 0.0687626 
8.7658 2.3878 0.0482808 -0.156513 
1.0143 4.7131 0.138029 -0.0639209 
12.199 3.5404 -0.075145 0.103902 
0.6213 5.9314 0.0281231 0.216974 
12.0298 2.0807 -0.0147184 0.0538444 
8.1326 3.9478 -0.106248 -0.205579 
12.79 5.044 -0.0330519 -0.092379 
2.9135 1.9933 0.00337759 -0.0377893 
1.6689 1.8864 -0.00286481 0.0261742 
9.635 3.5184 -0.17043 -0.0933173 
4.9286 3.8953 -0.0447453 -0.100118 
12.1245 2.2955 -0.0956427 -0.0188968 
9.4683 2.0149 0.130677 0.0320809 
12.3394 5.3323 -0.0558561 -0.0887262 
1.4938 4.6264 0.0269604 0.0365986 
8.9643 6.7074 0.0790494 -0.00337837 
3.5675 2.0237 0.0700457 -0.13023 
6.1297 4.3165 -0.0379564 -0.0363212 
1.6102 6.2384 -0.0659043 0.0141164 
3.2053 1.2793 -0.258081 0.0796203 
8.0044 1.6801 -0.148279 -0.0947827 
4.0365 3.1396 -0.0666509 -0.0926462 
12.1928 4.2245 -0.112236 0.0274167 
3.1327 5.2838 -0.0890977 -0.105539 
0.732 1.7671 0.0660318 -0.0866232 
5.0714 1.2457 -0.0336278 -0.00117777 
12.5695 2.7751 -0.0681522 -0.0801591 
5.3604 5.8239 0.0602086 0.0333899 
11.2095 2.3246 0.0396902 0.0546512 
2.1829 3.7917 0.132307 0.0162992 
1.2084 4.6227 0.219405 0.0222628 
5.0232 6.7704 -0.0401081 0.0795997 
3.6072 1.8267 -0.1942 -0.0373274 
12.7281 6.3804 0.0860471 -0.0387051 
2.329 6.6329 0.0506381 -0.0282213 
1.178 6.1514 -0.097241 0.0315211 
4.607 1.3761 0.0108191 -0.04553 
8.5605 5.9796 0.158408 0.156258 
11.1305 4.0862 -0.0470306 -0.093518 
9.8565 1.3385 -0.0247253 -0.0426633 
9.0739 1.5144 0.0507138 -0.0381269 
11.5512 2.8847 0.0821214 -0.199371 
5.6621 4.1249 0.0213202 -0.203088 
2.6462 1.0791 -0.0897025 0.0174049 
8.0455 0.8954 0.0755651 0.0641297 
1.9397 5.6734 -0.221546 0.0230617 
6.9536 2.1053 0.175 0.148346 
8.2333 1.1006 0.104108 0.200487 
8.7442 3.6989 0.0473932 -0.0585135 
1.4098 6.0782 -0.0902811 -0.125669 
13.3975 0.7674 -0.147165 -0.093175 
3.3467 1.7123 -0.282043 -0.00491026 
7.2819 0.5621 -0.174011 -0.0183856 
3.4782 3.2933 0.0653409 0.141653 
9.6847 3.9076 0.00252998 0.0235554 
6.1214 2.1729 0.195654 -0.0911198 
7.0901 6.0328 0.0718164 -0.135137 
7.1107 6.7164 -0.34413 -0.0300087 
11.0188 2.4856 -0.198541 -0.0991612 
7.6764 1.0251 0.000134742 -0.0261821 
0.8997 6.1079 0.0704723 -0.115336 
1.2992 4.4408 0.0753302 0.115555 
8.9652 3.596 0.00539272 0.0396916 
7.9292 2.9547 0.0640947 0.00130746 
9.9201 2.7836 -0.244194 -0.0687833 
12.9768 4.6323 -0.00843631 0.151521 
3.6372 1.4195 0.16259 -0.20693 
10.6422 0.6813 -0.170521 0.134306 
3.3234 2.0156 -0.286676 0.279894 
10.1785 6.208 -0.024342 -0.037287 
2.0309 0.8072 0.0940429 0.124587 
12.929 5.8114 -0.0497088 0.0602865 
7.1892 2.9073 0.111417 -0.00625094 
6.7963 0.7634 0.361849 0.136081 
12.9685 6.5587 0.0683976 0.20335 
10.3672 3.0044 0.0807873 -0.0805466 
10.8259 2.2755 0.133716 -0.126123 
7.0339 0.7562 -0.159686 -0.182211 
5.5054 6.7882 0.116075 -0.123404 
1.9627 5.9335 0.148388 -0.0655641 
4.6714 2.9452 -0.144962 -0.109003 
6.3091 3.2886 -0.0361054 -0.13043 
5.08 0.8852 -0.0310634 0.0192034 
13.4763 6.0877 -0.0360859 -0.109379 
11.2886 6.6507 0.190837 0.0916725 
2.0699 4.613 -0.0168644 0.0883102 
0.5576 0.5661 0.142056 0.0162741 
3.8912 0.9587 0.0258805 0.244858 
11.1272 3.2807 -0.183067 0.0437987 
3.2037 5.8382 0.107077 -0.0418678 
10.6747 6.7302 -0.0217416 -0.0934555 
1.0227 3.8757 -0.00872207 -0.110985 
12.3277 4.8768 -0.242396 -0.0318537 
4.0134 5.8792 0.124802 0.0982397 
2.0611 3.0163 0.0987251 0.216543 
1.3728 6.7534 -0.0544488 0.178126 
8.6287 4.9079 0.0900565 0.303491 
5.7754 1.4752 0.218044 0.196464 
4.1849 2.1354 0.149647 -0.00849006 
5.4413 3.4405 -0.418301 0.0498491 
10.0992 4.9616 -0.105598 -0.294909 
7.1153 2.2335 0.303235 0.0446016 
12.4687 4.0944 0.0850551 -0.251546 
4.625 4.4876 -0.511023 -0.080019 
11.3978 6.2213 0.112836 0.0151167 
9.5882 1.1909 -0.0603465 -0.0690673 
11.9517 1.7446 0.0968944 -0.0208814 
13.3143 5.3503 -0.152724 0.0843801 
1.7363 3.4459 0.0549881 0.00577893 
11.11 3.7032 0.433576 0.168092 
4.0948 4.0701 0.194305 -0.252247 
13.3971 3.3717 0.0900281 -0.0661847 
3.8361 1.2874 0.104918 -0.196331 
6.5626 3.975 0.0170008 -0.208386 
8.954 2.1365 -0.0368174 0.0849715 
6.6562 3.1691 -0.0473197 0.166049 
5.7769 4.8892 0.00491902 0.0715417 
9.3221 2.9221 -0.0302329 -0.0342277 
3.9617 5.5161 0.0402054 0.106092 
0.6552 0.8334 0.310268 -0.0107661 
1.2637 0.5148 -0.257946 -0.10423 
5.0436 4.2243 -0.0673821 -0.0437575 
3.6019 5.6621 -0.120568 -0.148006 
3.3072 3.7837 0.0488808 0.0394959 
7.1394 4.1931 -0.0292305 -0.0176486 
5.7933 4.6404 0.0365211 -0.245627 
8.0284 5.53 -0.123012 0.0357469 
11.5375 4.4337 -0.0402581 0.112968 
7.6079 5.3661 0.065754 -0.048552 
6.3756 4.8271 0.155945 0.152624 
5.2313 4.6226 -0.172953 -0.121623 
1.0761 6.7353 0.117939 -0.0284122 
5.8836 3.6031 0.157878 -0.195333 
10.1795 6.4967 -0.0308761 -0.101601 
13.164 6.3939 -0.0230389 -0.0325097 
7.0069 3.4981 -0.126182 -0.0337009 
6.0532 0.8507 -0.0645822 -0.02707 
7.7151 2.0459 0.138711 0.238353 
0.8675 6.7815 -0.129748 -0.0259354 
9.0115 0.7322 -0.116852 -0.0292659 
13.8076 1.6176 -0.162665 0.0391767 
12.7532 3.8216 -0.0465288 -0.0348644 
8.4283 3.4514 0.0541337 -0.00694343 
10.0403 3.5604 0.0780606 0.158933 
11.9259 4.7251 0.0263327 0.0725892 
7.6432 6.0811 0.196695 -0.0357589 
3.6424 1.1438 0.179691 0.160634 
6.8648 5.1299 -0.0309681 0.238679 
6.2549 6.0631 -0.308801 -0.0295084 
6.5432 0.6233 0.0535626 0.168692 
0.8541 5.863 0.0529861 -0.15368 
4.4959 1.5536 0.034893 0.065873 
5.4901 1.3679 0.0184341 -0.0677377 
13.1193 4.4642 -0.0985591 0.0926548 
10.1337 5.4225 -0.0249926 0.0326982 
7.9941 2.7207 0.038547 0.0853135 
12.4333 2.4861 0.122182 -0.0185356 
9.2627 0.7846 -0.100848 0.0142453 
9.4396 4.4329 0.188817 -0.130217 
2.7535 3.6044 0.0128699 -0.108051 
5.362 3.641 0.0944426 0.102155 
1.3905 2.8213 0.0423181 -0.102181 
9.8406 6.4249 0.0521715 -0.0860226 
21.2112 4.7359 -0.113634 -0.154826 
16.5017 2.0015 -0.0772321 -0.0260237 
17.1733 0.9766 -0.102089 -0.013088 
27.4868 3.1061 -0.0628926 0.241979 
20.6183 1.5966 0.143906 -0.224725 
27.2281 4.4086 0.0297124 -0.0336736 
24.855 5.5421 -0.131608 -0.339123 
25.7423 0.7868 0.127502 0.104716 
16.2263 6.5532 0.147535 -0.122625 
18.1737 3.6106 -0.0221356 0.131655 
14.1612 2.0191 -0.114669 0.0855823 
24.6157 0.5073 -0.14631 0.114512 
18.1605 4.6877 0.18936 -0.186657 
18.4781 1.2807 -0.067735 0.00581392 
24.5477 0.9044 0.059169 0.0372788 
19.9936 1.7859 -0.0951746 -0.0951244 
25.1972 6.4497 -0.0329482 -0.231512 
24.3654 2.4373 0.0198115 0.109508 
20.3971 1.3977 -0.229441 -0.0664185 
19.7735 6.6692 0.195766 0.00931561 
18.4309 0.516 0.0127044 0.237608 
15.365 3.522 0.029355 0.257258 
17.9405 5.6573 0.0380579 -0.0801545 
26.8787 3.5247 -0.0411017 0.104714 
21.7824 5.4176 -0.042716 0.228674 
20.5357 5.1903 0.0724989 0.0642972 
20.7192 0.6783 -0.273981 0.0909791 
18.5884 3.3058 0.156663 0.201737 
14.5381 5.549 -0.0945119 -0.123286 
16.0622 4.2014 0.156073 0.0122384 
18.5801 2.0296 0.0859888 -0.0518214 
18.7245 0.9415 -0.190734 0.100495 
24.4451 4.6284 0.0101111 -0.0826346 
22.4807 5.5982 0.18596 0.0854732 
19.2514 3.9735 -0.015428 -0.0266029 
16.6399 1.1437 -0.0793604 0.1837 
14.5071 5.865 -0.0595283 -0.108745 
16.3156 3.7909 -0.0157316 -0.0260089 
27.3353 1.8169 -0.0562573 -0.103845 
17.9252 3.4828 -0.0566358 -0.0240062 
22.0995 3.5747 0.18383 -0.103181 
26.5288 2.8007 -0.0504345 -0.0476359 
16.1111 1.7397 0.285971 0.0990994 
22.9011 3.8473 0.022918 0.128318 
23.1672 4.3153 -0.0102142 0.292407 
22.5639 0.8487 0.103143 -0.0507803 
20.4405 6.715 -0.0996638 -0.0932804 
20.4857 5.4853 0.0719251 0.0465116 
14.4307 6.7749 0.12861 -0.167002 
17.374 5.429 -0.0703779 -0.0485371 
14.8782 0.6651 -0.234574 0.0684674 
15.9823 3.3653 -0.133451 0.0604741 
22.2837 5.2631 0.0481079 0.13326 
22.2073 6.7613 0.280732 0.146029 
15.6765 2.1518 -0.0937947 0.130662 
27.3554 0.9132 -0.0585621 0.0778998 
17.6811 4.0622 -0.150317 0.0595574 
26.5868 3.2805 -0.0136699 -0.0803659 
14.3976 2.3797 0.200151 -0.00357149 
15.5469 5.4246 0.0975148 -0.177619 
22.5595 1.4916 -0.0123327 -0.0334584 