ITEM: TIMESTEP
0
ITEM: NUMBER OF ATOMS
1764
ITEM: BOX BOUNDS pp pp pp
0.0000000000000000e+00 2.8000000000000000e+01
0.0000000000000000e+00 7.0000000000000000e+00
-1.0000000000000000e+00 1.0000000000000000e+00
ITEM: ATOMS x y vx vy 
11.1895 2.1497 -0.0411163 0.0354227 
10.6311 2.4305 -0.0261371 0.21849 
13.5281 1.3937 0.0828231 -0.13104 
11.1953 6.5338 0.0227714 0.131844 
1.2872 4.2909 -0.0267492 0.0606143 
1.7484 6.5211 0.0575919 0.123305 
8.1181 0.7944 -0.0377533 0.0827967 
9.4537 4.2738 -0.154352 -0.0027308 
7.9801 1.2047 -0.0927881 -0.0296213 
8.532 3.9795 -0.179851 0.016507 
10.4818 5.0371 0.127923 0.0471365 
3.7382 6.7987 0.146977 0.167229 
7.9689 1.6923 0.292819 0.0510411 
5.4679 4.5238 -0.21437 -0.15001 
5.1984 5.0058 -0.0411365 -0.0553722 
12.7082 1.0035 0.0885067 0.236245 
13.3059 6.3883 -0.065956 -0.0650008 
6.6826 1.3287 -0.0423107 -0.101932 
11.4012 0.507 0.0933426 0.164156 
6.6795 4.3255 0.120482 -0.0188769 
12.9033 0.7563 -0.0314647 -0.0182537 
13.027 2.7133 -0.079432 -0.196002 
5.8104 1.4251 -0.0242217 0.136163 
7.8938 3.3375 -0.120467 -0.0515343 
1.0358 6.2514 -0.434545 -0.289847 
5.961 6.506 -0.223892 0.0609241 
9.5866 2.6876 0.12041 -0.197255 
6.7959 5.8364 -0.101434 -0.136305 
5.2339 4.3141 -0.187419 0.124953 
5.2576 6.3088 -0.0014706 -0.0089028 
0.9902 3.9601 0.0617076 0.250051 
6.1292 3.9229 -0.00884059 0.0773502 
13.6503 3.4073 -0.138673 0.0293517 
7.5184 3.6381 0.0787659 -0.0341156 
10.1676 4.8133 -0.0745905 -0.166314 
11.6329 1.9156 0.112262 -0.0405521 
1.1896 4.7826 0.0782161 0.270484 
2.9105 4.2989 0.018044 0.165748 
12.3378 4.8786 -0.374205 0.0411443 
13.7817 0.6301 -0.223735 -0.318907 
4.6845 2.027 -0.04064 0.0940726 
2.4123 4.1718 -0.0610428 0.119609 
3.2616 2.4582 0.141375 0.0584469 
7.02 3.4707 -0.102706 -0.0924636 
6.6979 5.1622 -0.0065156 -0.256357 
7.4403 4.9257 0.306268 -0.0475647 
12.4492 5.967 0.0575618 0.0951962 
13.1233 4.1195 0.0925071 -0.0280218 
6.6252 6.7478 0.213621 0.0099125 
4.7961 3.54 0.0114032 0.245822 
12.8856 4.677 0.102271 0.000134148 
11.404 2.0051 0.0155337 0.165783 
11.3743 5.0658 0.00442615 0.0452312 
3.323 1.653 -0.0970332 0.0149646 
1.7858 0.6186 0.0112031 -0.1456 
3.8376 2.7286 -0.198654 -0.101977 
10.5079 2.7239 -0.0288699 0.0619919 
5.0203 0.743 -0.0814779 0.124756 
3.9207 1.1098 -0.101859 0.0809414 
6.9244 4.9738 -0.317125 0.0394627 
2.9475 5.8859 0.132358 -0.135012 
2.4205 4.435 0.0220734 -0.0123901 
11.3236 1.7079 0.00427401 -0.0806796 
7.3462 6.5022 0.0806974 -0.0133687 
7.7447 4.1102 -0.142191 0.153525 
5.0518 1.663 -0.0761326 -0.0668876 
5.1302 5.7989 0.0651607 0.0200453 
1.542 2.2366 0.105842 -0.183235 
1.7254 4.3356 0.0479746 0.0448086 
9.2397 6.4098 0.0427486 -0.375937 
13.9092 3.964 0.0576294 0.107868 
4.5285 2.9386 -0.120381 -0.292441 
11.8053 3.8443 0.136409 -0.151386 
4.4611 6.2414 -0.386215 0.0718131 
10.8719 6.3296 0.101347 -0.147828 
7.2418 5.3733 -0.171416 0.109393 
2.8224 1.7962 0.271783 0.0839222 
8.0766 6.0276 -0.222835 0.106072 
1.3802 1.2101 -0.135298 0.137577 
2.4393 3.0568 0.048929 0.12418 
8.6982 3.5504 0.0964688 0.150812 
8.3921 2.7867 0.0471718 -0.394542 
3.6869 3.7924 -0.1446 0.0829911 
4.1363 3.0357 -0.0222182 -0.0819531 
12.0537 2.4812 0.00961531 0.0647787 
9.7404 1.026 0.2466 -0.0963052 
6.4629 1.9429 -0.165826 0.124969 
10.9492 0.5104 -0.173792 -0.313849 
10.6639 3.4475 -0.038267 -0.00183417 
3.4046 3.2724 -0.0150543 0.0442906 
3.2623 6.3177 -0.225016 0.0863166 
5.5013 5.58 0.0742822 -0.00949082 
2.3103 2.1691 0.103827 -0.153361 
7.5049 4.3698 -0.12603 -0.225992 
4.2351 3.2168 0.19899 0.158709 
13.4785 3.5633 -0.0159302 -0.113211 
10.9618 1.2632 0.0925656 -0.0588769 
8.5103 5.8793 0.388633 0.053788 
2.0297 1.7871 0.00489611 0.153684 
10.5159 4.363 -0.292847 0.0354875 
10.7008 3.0123 0.0364344 0.210046 
11.2475 3.7022 -0.0277809 -0.0807086 
7.7508 1.3823 -0.100647 0.102928 
0.9506 3.1062 -0.0379351 0.237601 
5.75 1.9446 -0.0381538 0.269473 
9.0101 2.9377 0.100588 -0.0840701 
2.0292 4.93 -0.0405491 -0.0268624 
11.4556 6.2674 -0.0421144 0.0219823 
12.3136 5.7264 0.113598 -0.00835877 
13.7511 4.8103 -0.180945 -0.035127 
6.842 3.222 -0.079534 -0.143579 
4.7705 4.025 -0.13487 -0.0493894 
8.1957 2.3388 0.0185379 -0.121393 
13.1557 0.9312 -0.0736622 -0.107264 
10.18 5.8743 -0.30438 -0.0277813 
10.1255 1.9836 -0.0921367 -0.144607 
11.4917 4.8842 -0.285705 -0.175362 
0.853 6.7087 -0.130768 -0.0373551 
12.3655 6.5514 0.1048 0.0775485 
11.1945 2.3855 0.0788254 -0.189109 
5.0296 4.8786 -0.141923 0.124112 
13.4621 4.8618 -0.0885362 -0.238434 
0.6437 0.6002 0.339158 0.0489651 
1.2302 3.6394 -0.137923 -0.0248472 
7.5539 0.6119 0.2898 0.114551 
1.7546 5.7312 -0.125806 -0.0716407 
11.8531 5.3728 0.310714 -0.0875628 
6.5348 3.214 0.12504 0.100297 
4.6929 3.2474 0.145881 -0.117343 
7.3388 2.3838 0.0538732 -0.272648 
4.4615 3.7654 0.0480592 -0.0505107 
8.859 0.5421 -0.235411 -0.0915047 
11.9711 0.9252 0.082191 -0.19159 
11.1824 1.3042 -0.0605116 0.256006 
6.5021 1.6952 0.264754 -0.188187 
1.4785 4.5531 -0.0894055 0.0349741 
11.4917 6.6272 -0.111924 0.0682645 
5.2482 1.2386 0.0562813 -0.0200572 
10.3944 3.8906 -0.126266 -0.0416233 
9.2496 3.4362 -0.0589335 -0.0825035 
3.7273 5.1476 -0.192846 0.0142461 
6.5086 5.5037 0.069805 -0.0863536 
12.3516 2.7846 -0.495618 -0.0455359 
9.7518 3.6617 0.3582 -0.00978172 
11.8134 1.7932 0.00182369 -0.0520859 
3.5728 1.3681 0.0134026 0.00106973 
9.6486 4.0247 0.0885841 0.295729 
2.6456 4.6055 -0.025988 -0.324382 
11.9363 5.0424 -0.0427104 0.121857 
8.4017 6.5143 -0.0670366 -0.0221269 
12.913 3.898 -0.0605032 -0.0833792 
10.9626 4.2462 -0.0686327 -0.100384 
4.8706 5.1872 -0.111635 -0.0361341 
5.196 5.2391 0.137272 0.0270884 
12.6852 0.6277 0.0136175 -0.245725 
2.1647 6.7188 -0.159033 -0.0762291 
10.5652 1.4233 -0.0453743 0.0736373 
10.3323 5.3867 -0.0250282 -0.00418604 
0.6027 2.305 -0.0296972 -0.238413 
0.9992 5.4189 -0.0596841 -0.125084 
2.1908 5.8331 0.00563152 0.00250781 
13.1234 3.4078 -0.102281 -0.0293488 
5.7157 0.6617 0.0432015 0.0798241 
10.2141 1.6991 -0.130737 -0.0781091 
13.575 6.688 0.0140497 -0.101314 
9.7293 6.3747 -0.154658 -0.0896133 
5.3784 6.4918 0.0715373 -0.038617 
11.6559 5.3249 0.283514 0.0153851 
8.6582 3.2099 0.133545 0.124508 
5.1525 3.3762 -0.0353367 -0.278533 
9.0796 2.6377 -0.0572132 -0.00138517 
13.4155 5.756 0.089576 -0.134003 
9.8899 1.8215 0.0500112 -0.0613061 
11.6461 1.0832 0.174245 -0.124408 
13.7516 4.2661 0.0703134 -0.0761498 
12.7962 3.7026 0.0667548 -0.161678 
1.1154 2.4379 0.248308 -0.0690238 
1.96 4.3078 0.206822 -0.352367 
10.7893 4.9039 -0.276029 -0.144276 
11.0633 5.1784 -0.111259 0.0229821 
10.7086 1.79 -0.201952 0.188533 
2.0194 5.7015 -0.121427 0.18242 
3.8688 6.1256 0.118114 -0.110023 
6.1066 5.1964 -0.100078 -0.0640127 
11.6225 0.7018 -0.240226 0.0373523 
1.2815 1.8652 0.0335298 0.043804 
10.4104 2.4999 0.0308713 -0.197677 
2.0369 2.9392 0.092553 0.174226 
13.3536 4.4376 -0.0513627 -0.0231749 
8.3553 3.0123 0.00192933 0.00760112 
1.8256 1.8319 -0.0808679 -0.125899 
0.5949 6.438 0.0331617 -0.0794037 
6.6605 3.9644 -0.156823 0.0135135 
6.0961 1.429 0.00341017 -0.150808 
12.0056 6.579 -0.0930705 -0.122945 
1.2742 3.1264 0.0362599 -0.174107 
8.7861 0.9745 0.0826312 0.155632 
6.1625 6.4052 -0.0625172 0.165021 
9.5936 1.25 -0.0757833 0.145294 
10.1897 1.0526 0.184426 0.0486672 
8.7955 1.2479 -0.0205423 0.195786 
5.527 3.1446 -0.154507 0.00489519 
13.9178 1.2641 -0.0817789 0.0768478 
1.7323 3.9275 -0.249077 -0.126478 
10.0028 3.1833 0.130904 -0.221507 
11.8552 0.5087 0.146678 -0.00669745 
7.0608 5.9691 0.0287775 0.0629253 
13.4624 6.2041 0.0139426 0.12592 
2.5051 5.1201 -0.170143 -0.209754 
5.879 5.3454 0.181011 0.0878088 
12.9022 4.108 0.054777 0.0344236 
2.4318 5.6456 -0.071982 -0.0243169 
0.716 3.7432 0.0241306 -0.0128041 
7.11 1.5763 -0.142987 0.00468849 
6.43 2.8544 -0.195545 -0.0803362 
5.9621 2.6754 0.00315727 -0.0710837 
1.9177 6.7034 0.0399842 -0.0697446 
7.1846 6.7257 -0.176334 0.0825065 
12.5967 1.5628 0.278153 -0.0249497 
1.7808 3.4965 -0.0262723 0.0303598 
3.3679 5.2768 -0.0372412 -0.125814 
12.8951 5.5678 0.0301635 -0.0109397 
5.7158 5.527 -0.0793723 -0.117684 
4.0251 2.1247 -0.0963004 0.103951 
9.8057 2.6007 0.102249 0.165797 
4.4857 3.497 0.0877268 -0.313166 
2.0561 3.2206 0.098609 -0.162018 
6.4712 2.3061 -0.062125 -0.155269 
4.6639 4.2645 0.0121143 0.032674 
8.4285 2.5692 0.0803822 -0.112817 
9.1796 5.7559 -0.231333 0.22045 
7.9216 3.0722 0.125552 -0.101832 
5.5642 2.6839 0.0210398 0.0474612 
3.9126 5.572 -0.124375 -0.144056 
11.1184 4.6673 0.102263 0.0528407 
1.5855 0.8998 0.0800506 -0.0293017 
2.8505 0.717 -0.114524 -0.174114 
9.089 6.1107 0.0786316 0.133025 
6.764 2.1097 -0.222919 0.00630882 
9.0149 2.0417 0.179441 0.00280107 
10.6375 4.0769 0.0101877 0.149248 
1.6341 2.8641 -0.0728573 -0.023533 
8.9269 3.8847 0.0903729 0.0335062 
9.9402 6.4589 -0.355855 -0.0680243 
7.8073 5.4732 -0.0769692 0.176015 
0.5391 0.8528 0.0650054 -0.171772 
0.7869 2.6342 -0.144669 -0.224035 
2.1756 2.5226 -0.153657 0.0147777 
13.6488 5.5329 -0.0946798 0.0289957 
5.7172 2.4048 -0.0409365 0.200225 
13.7173 0.9963 -0.120348 0.309424 
5.8763 4.0492 -0.0900471 0.04906 
13.047 6.0844 -0.0749753 0.111295 
5.4083 2.9511 0.0360878 0.0611143 
10.2904 3.1985 -0.154875 0.000430998 
2.3424 1.2396 -0.170827 -0.169094 
12.5767 2.1023 0.197313 0.0123251 
7.9644 4.8218 0.174792 0.0581646 
3.5014 4.8108 -0.128187 -0.0676819 
12.8525 1.5055 -0.0705859 0.074878 
6.1166 5.4494 0.38709 -0.0393947 
10.6751 5.4153 0.1949 0.187339 
1.5593 5.2623 -0.0665519 -0.130786 
9.6766 5.8517 0.107987 -0.00672904 
11.7287 2.8651 -0.212006 0.0209366 
11.8863 6.0785 -0.127504 0.210147 
5.4579 0.5002 0.0525502 -0.163685 
4.7708 2.5016 0.0915087 -0.0581307 
12.3765 5.1685 -0.233494 0.165167 
2.9485 3.2813 0.347027 -0.0906572 
7.1032 4.604 -0.0744248 -0.128817 
13.5645 1.8793 0.20834 -0.0726435 
0.9709 5.9428 -0.0160171 0.190657 
5.5584 4.005 -0.167321 -0.0696918 
0.7618 5.263 0.220131 0.116004 
0.5748 1.8887 -0.0735373 -0.00809192 
6.761 6.3358 0.21411 0.187785 
13.5324 5.0667 -0.049962 0.0681669 
5.3336 4.041 0.0185234 0.123144 
8.1486 3.3402 0.182158 -0.168528 
5.7345 0.8915 -0.0987658 0.114682 
2.9441 1.1411 0.194609 -0.184314 
11.7106 6.3752 -0.0133691 0.0742418 
11.5339 2.2334 0.234573 -0.0965565 
2.0637 3.6271 0.123829 0.181878 
4.6915 6.7104 -0.400536 -0.0974802 
9.2935 1.2758 -0.165577 0.0989102 
8.715 4.5152 -0.113208 0.0539604 
11.2477 5.3294 0.0819722 -0.0477807 
4.1137 6.2507 0.190034 0.120772 
3.9871 4.9963 0.0647038 0.0787453 
9.0818 1.065 0.0271379 -0.114731 
10.0874 2.7368 -0.051304 -0.147857 
6.6624 2.8875 0.128483 0.252229 
12.8127 4.9125 0.137587 -0.014434 
10.1545 1.3732 -0.0426739 -0.0701621 
8.6243 4.8371 0.0434329 -0.0338407 
7.5162 1.5284 -0.00578384 -0.123836 
4.0308 3.3558 0.0514685 -0.180367 
8.5399 2.3831 -0.117849 -0.117048 
1.011 5.6431 0.116311 -0.0680508 
11.6035 5.7147 -0.0147456 0.191398 
1.3021 2.6781 0.0266137 -0.0174674 
1.6892 4.7623 0.0558119 0.0590248 
8.6051 1.9064 -0.0783238 -0.055125 
6.2013 2.7485 -0.0304689 -0.112822 
12.2695 4.5114 -0.1767 -0.0681031 
11.1113 4.0092 0.0873348 -0.135963 
2.5115 2.4796 -0.170075 -0.150626 
7.6446 6.4602 -0.310712 -0.0265774 
13.998 6.0971 -0.158853 -0.00929394 
9.6717 4.3787 -0.134525 -0.0219675 
4.2551 1.7429 0.0426047 -0.172327 
11.8312 1.4969 -0.135144 0.022433 
9.1141 5.4559 -0.228488 0.123051 
8.1893 2.7679 0.136388 -0.127517 
12.0599 2.0534 0.138221 -0.0842573 
6.3561 6.5571 0.137505 0.0214554 
3.6837 4.9509 0.059877 -0.0133423 
6.7161 5.4781 -0.0292575 0.0317922 
9.8345 1.2392 -0.0462784 0.267482 
7.7277 5.0601 -0.00368931 0.194925 
8.6398 5.632 -0.243644 -0.074632 
0.667 5.8159 0.297495 0.0718697 
3.333 3.5828 0.208784 0.0342249 
13.1683 2.0103 0.0170719 0.0495218 
13.7248 1.5435 0.0431538 -0.101747 
8.2751 1.8399 0.181983 0.120317 
8.3822 1.5043 -0.0217113 0.0198591 
13.4677 4.1231 0.18617 -0.168811 
5.0871 2.0663 0.0153616 0.0930738 
3.0632 3.7235 -0.0242204 -0.130298 
7.3561 1.3236 -0.0526818 -0.056809 
13.0895 5.3561 0.153408 0.291174 
1.251 1.5837 0.261737 0.200586 
2.8458 5.0516 -0.0915744 -0.119906 
6.6323 6.1117 0.235527 -0.147254 
7.8896 1.9967 0.0967327 -0.0723856 
3.1503 5.8008 -0.167955 0.23328 
9.1218 2.3834 -0.0702822 0.177101 
11.2489 2.9269 -0.067302 -0.070688 
2.9945 0.8645 -0.0618327 0.0492648 
1.1492 3.3752 0.389477 -0.0501028 
2.4502 4.8092 0.0803021 0.217075 
3.4946 5.6691 -0.064156 0.0682343 
8.6302 0.6964 -0.223478 0.0240592 
4.9766 4.2435 -0.13302 0.155029 
8.8968 1.5251 -0.0894932 -0.128599 
1.5388 5.0191 0.184459 -0.185738 
8.0448 1.5001 0.0740223 -0.00475111 
3.4195 6.6457 0.103808 -0.112477 
8.5685 1.5841 0.138925 0.0763767 
4.8282 5.8069 0.10049 0.00782172 
8.4124 4.903 -0.0482307 -0.102036 
3.5219 0.8818 -0.0944575 -0.0046772 
4.3859 5.9923 0.184044 0.00557604 
9.3906 6.2227 0.00860774 -0.00801295 
2.8541 6.7761 -0.0447683 0.157374 
12.6689 6.6987 0.0665211 0.238775 
5.3677 1.9314 0.315569 -0.228697 
9.4408 3.762 -0.00768691 0.0903226 
12.3346 1.773 0.139409 -0.17548 
11.7456 2.6169 -0.022415 0.003961 
3.4486 3.7942 -0.227152 -0.0681796 
7.0753 4.3213 0.137959 0.0358076 
11.0438 0.9653 0.047268 -0.068858 
2.3428 5.243 0.0995584 -0.27224 
7.2982 4.4938 0.0442849 0.28067 
9.5485 1.8369 0.0740811 0.0169975 
13.5893 5.9382 -0.00605194 0.303438 
9.928 0.5051 0.114184 -0.115519 
7.7287 6.6526 -0.0394156 -0.18089 
10.7173 5.2017 -0.000836942 -0.303274 
9.6292 5.5636 -0.187185 0.046653 
5.926 5.054 0.190628 0.00240425 
5.2976 1.0143 0.118961 0.0354103 
12.7798 5.8303 -0.178061 -0.244752 
12.6653 2.5101 -0.0348798 0.022152 
9.8744 4.4468 -0.0246134 -0.0106518 
9.6158 4.6108 0.0931736 0.220161 
3.4855 6.1661 -0.124957 -0.15619 
1.5055 3.8054 0.128156 0.0164158 
13.179 4.8878 -0.0492944 -0.195225 
9.9773 4.671 -0.0707206 -0.271295 
12.2812 3.3465 -0.233649 -0.0982391 
3.0219 2.5659 0.0324548 -0.143198 
7.81 3.7516 0.0978133 -0.024277 
5.1703 1.4613 0.175241 -0.076712 
6.0725 3.725 -0.0419656 -0.0624675 
11.5824 1.5381 -0.0532736 -0.288064 
5.9313 5.9789 0.1449 -0.13184 
5.2357 3.6157 -0.0199506 -0.0762651 
6.0645 0.5857 -0.0753621 0.187591 
4.0521 5.8954 0.180951 0.103243 
9.9629 5.6659 -0.0557719 0.0901761 
6.4414 5.1061 0.0609288 -0.112378 
3.2752 2.0607 0.172495 -0.107478 
11.0585 1.886 -0.0727609 -0.0281249 
3.4685 0.5015 0.0691914 0.0736371 
4.1783 4.9345 -0.00227168 -0.0827733 
12.5586 4.556 -0.147219 -0.0153148 
4.95 4.6296 0.082937 0.00693571 
11.4827 1.272 0.073702 -0.247491 
4.8935 2.8672 0.0734546 0.0665608 
12.2824 3.916 -0.118189 -0.0479197 
5.6148 1.598 -0.0122413 -0.0149714 
4.8328 1.4754 0.0123572 -0.0975913 
8.8681 6.4687 -0.0130239 0.13368 
11.06 1.4994 -0.166628 -0.205437 
10.6761 3.7803 0.144911 0.206304 
8.8355 2.6837 -0.231682 -0.104708 
0.9617 2.0864 -0.162752 0.0324469 
4.3954 5.1619 0.241632 0.00171028 
1.1692 6.041 0.0524155 -0.2668 
0.9417 1.7247 0.175934 -0.0604704 
11.4772 4.2794 -0.16675 0.0798523 
1.6153 2.4672 -0.124851 -0.0293545 
5.24 2.2814 -0.00277834 -0.128636 
6.3716 1.3191 -0.0882799 0.113473 
12.4546 2.3987 0.0502518 0.0429894 
3.7064 5.6848 -0.0754033 0.0209625 
12.1552 1.0991 -0.0815864 0.0323699 
13.3861 2.6664 -0.106438 0.150726 
2.6716 6.157 -0.180915 -0.205432 
12.9263 4.4299 -0.112847 0.060828 
10.6591 6.1213 0.158549 0.189773 
3.9193 4.3459 -0.22141 -0.132371 
10.4402 0.7327 0.0138459 0.0329397 
9.4958 0.6163 -0.0856998 0.102263 
10.6899 4.6626 -0.290461 0.0325318 
7.5744 4.6775 -0.0627012 -0.191567 
1.9044 5.1319 -0.0779779 -0.0517287 
13.6544 3.0006 -0.0755002 -0.0167885 
12.1569 6.7282 0.0803772 -0.111857 
2.3013 6.3945 -0.142046 -0.172862 
6.2703 5.8485 0.0290838 0.13412 
12.5875 5.3975 -0.0469427 0.103716 
10.9662 6.1241 -0.130843 0.111456 
13.816 1.7542 -0.0552682 0.0446196 
12.5204 3.3334 0.103511 0.209801 
7.9613 0.5427 -0.173705 -0.164887 
13.3531 6.7031 0.00623851 0.0527066 
7.2698 0.5816 -0.0242442 -0.0997288 
8.0156 2.4803 -0.248902 0.107167 
3.1971 2.8514 -0.000398197 -0.0751893 
13.0803 0.5425 0.277278 -0.0877208 
9.8274 4.1191 0.0891657 0.136501 
7.4641 6.289 -0.0210086 -0.0574074 
1.7952 4.1365 0.15179 0.0324593 
3.9926 1.5729 -0.042742 -0.0545869 
9.1242 3.989 -0.0297582 -0.157497 
10.1967 4.2643 -0.239418 -0.000526706 
10.4323 1.8489 -0.160718 0.160187 
9.4519 5.3053 0.105327 0.200493 
8.2288 5.7903 0.0241595 0.0263597 
4.31 5.3545 0.0615009 -0.0610996 
2.1843 4.5892 0.0309737 -0.0016824 
4.6692 0.7364 0.2526 -0.0545016 
10.7586 0.7137 -0.00973649 -0.139405 
10.1828 3.7898 -0.0180013 -0.264828 
12.8945 1.8596 -0.162831 0.090312 
0.7925 0.7845 -0.0703253 0.0137057 
11.3642 0.9427 0.208091 0.0223887 
2.3588 2.8577 0.00145955 -0.134333 
8.1828 4.8537 0.0171509 0.00629381 
5.4027 6.0041 0.312824 -0.0871074 
4.2171 0.5484 -0.00338825 -0.331745 
0.9267 3.4958 -0.0401501 0.405249 
2.314 1.7906 0.0400801 0.181664 
3.0925 5.3515 -0.131518 0.0705076 
4.5124 1.6062 -0.128417 -0.380421 
9.5563 2.931 -0.0359127 0.0498552 
3.6078 3.3465 0.369972 0.0779549 
4.2661 3.9425 0.15284 -0.146133 
1.4269 0.6236 -0.250204 0.016349 
7.3672 5.9565 0.0829327 0.0933997 
0.8919 4.6919 0.090797 -0.0129915 
2.9676 2.8415 0.290675 0.149342 
5.5828 6.7878 0.083982 -0.15385 
7.468 5.4358 -0.0175835 0.0066431 
5.1849 6.735 -0.0158174 -0.00568897 
10.1231 2.4792 -0.0552742 -0.266785 
1.5952 1.8296 0.083618 0.0153231 
11.5225 2.8585 0.123087 0.0323258 
7.079 2.2691 -0.0761953 -0.199901 
4.1622 1.0755 0.361127 -0.277235 
12.1051 0.7739 -0.0618321 -0.0955688 
6.0825 2.287 -0.0997751 -0.103992 
2.7202 1.3815 -0.130789 -0.146359 
5.6135 5.9589 0.0734773 0.127852 
9.9691 1.0833 0.143406 -0.129102 
10.0776 6.6049 -0.138467 -0.0669719 
6.7515 3.7668 -0.054446 0.150476 
1.9933 1.4316 -0.15068 0.152818 
8.2854 5.1151 0.152998 -0.127494 
2.042 2.0386 0.0514635 0.00301723 
1.3663 6.7319 -0.176548 -0.134992 
4.192 4.4102 0.0777447 0.0643831 
5.6716 3.5146 -0.150056 -0.142941 
2.6766 5.7332 -0.0745179 -0.214826 
1.8747 6.1544 0.133742 -0.155786 
4.7707 5.5453 -0.0890068 -0.0520516 
5.9923 1.8072 0.0183888 0.230514 
5.2305 4.7246 0.0725629 0.225862 
1.0635 4.3459 -0.15472 0.12524 
2.8249 5.436 -0.160108 0.103909 
7.0651 5.162 0.158086 0.0628449 
8.0725 5.5999 -0.0976582 0.00999092 
2.2576 4.0126 0.0520213 -0.241676 
13.2309 5.1847 0.153361 0.385448 
11.3189 4.026 -0.0474011 -0.162082 
8.9006 6.0179 -0.138088 0.136945 
2.2542 3.7911 -0.0894885 0.024909 
9.0639 5.1662 0.036646 -0.0829987 
7.981 4.1505 -0.0380669 0.0219674 
13.8264 2.0664 -0.19473 -0.108357 
8.4338 1.0292 0.132777 0.0207181 
9.7178 0.5919 0.00386456 0.20902 
3.6243 1.8005 0.148688 -0.275319 
6.2195 4.2497 0.086998 0.0243916 
6.6717 0.8584 0.0314902 -0.134931 
4.0528 3.598 -0.243851 -0.317509 
12.5023 1.2768 -0.168201 -0.00874137 
13.4846 2.8698 0.041512 -0.0735063 
12.6166 4.3213 -0.214092 0.0638394 
5.0215 3.1491 0.0833147 0.098715 
5.9941 1.1377 0.0394006 -0.181879 
6.4662 2.6358 -0.00104519 -0.033906 
9.7589 2.8386 -0.0957084 0.0616353 
0.78 6.2991 0.0544447 0.176897 
3.6329 2.4608 -0.0792162 -0.21952 
2.7647 6.3418 0.0248558 0.0347594 
1.3975 4.0371 0.213582 0.305456 
11.321 4.7747 0.0464647 -0.349552 
0.5611 4.8131 -0.289599 -0.0293705 
5.8568 4.2822 0.00797355 0.0341525 
13.9946 6.4204 -0.0267698 -0.013184 
3.0625 1.5553 -0.0780025 0.201037 
7.7713 5.7623 0.0256874 0.135596 
6.1479 4.4483 -0.102431 0.156126 
11.589 3.9281 -0.0351854 0.122961 
13.5549 3.8325 0.234111 0.286208 
13.9455 1.5549 -0.247608 0.0945425 
10.3707 5.9809 -0.144487 -0.153212 
6.9945 3.7738 -0.0593979 -0.114111 
7.1818 2.5895 0.0109987 -0.303869 
10.9957 5.6645 -0.171948 0.191488 
6.2598 0.9906 0.0179902 0.0420702 
7.3465 4.712 0.0821472 -0.344494 
7.8625 6.3311 0.0110189 -0.102752 
11.4354 5.9554 0.0916561 0.0453059 
2.1154 5.1113 0.137555 -0.0970838 
12.7506 6.3807 -0.212913 -0.182365 
4.6906 6.1987 0.0793094 0.00444062 
4.5114 4.9871 -0.136844 0.0916755 
3.2938 5.5319 -0.17183 -0.0801285 
13.0806 3.7875 -0.173641 -0.139247 
9.3364 2.1241 0.0938444 -0.183527 
6.7383 2.6975 0.230714 -0.0770894 
13.1293 4.5592 0.293843 -0.152486 
12.3961 3.663 0.106341 -0.162004 
10.3439 6.4444 0.0546691 0.197356 
8.9755 3.2777 -0.0137325 -0.116689 
7.722 4.3279 -0.0163154 -0.0014897 
9.7399 3.3921 -0.0588666 0.0438022 
1.7599 1.1164 -0.0565026 0.0132121 
4.4158 2.7464 -0.168939 0.0265764 
10.4448 0.9421 -0.0154476 -0.0500594 
10.9096 2.2807 0.133418 -0.139599 
1.9329 4.649 0.0376747 -0.121559 
7.6343 0.9519 -0.260258 0.160234 
0.5966 6.0107 -0.299171 0.0847331 
2.7468 4.0448 0.0393444 -0.187782 
13.846 5.2141 -0.126542 0.109923 
13.2262 3.2192 0.00125144 0.151925 
7.7418 2.6912 -0.0754344 -0.027966 
9.8333 5.5033 0.0563169 -0.126542 
5.503 5.1209 -0.116925 0.11897 
8.6505 2.8106 -0.152911 -0.02153 
4.9993 6.3944 -0.237264 -0.125441 
5.7639 1.2091 -0.235319 -0.0538812 
12.6723 5.5948 -0.145982 -0.0734379 
5.7056 3.2821 0.132699 0.0489293 
7.0957 1.0023 -0.156195 0.0796384 
0.5916 3.391 -0.00484048 -0.0193411 
5.5732 6.1644 -0.0169737 0.114972 
9.2609 5.081 0.14253 -0.00435721 
8.4801 5.3776 0.0246363 0.114346 
5.1571 2.6542 0.0720989 -0.0889117 
3.3322 2.2622 0.0341214 0.0398096 
9.2036 4.3144 -0.101748 0.0917136 
8.2908 2.0592 -0.0633485 0.202204 
6.278 2.4874 -0.038414 0.0388027 
2.6292 6.5664 -0.162318 -0.0728302 
11.7696 4.7701 0.197495 -0.0185089 
6.3023 0.6743 0.0182456 0.0901368 
12.0047 2.2855 -0.0232491 -0.200866 
8.409 4.4741 -0.00137144 0.295588 
2.526 1.6677 0.161462 0.199096 
2.6866 3.7483 0.034487 0.0142653 
8.9664 4.7253 0.0234173 0.0197181 
3.5942 1.5901 -0.130135 -0.110926 
7.9815 3.6176 0.00554909 -0.0241899 
11.8894 1.1341 -0.029183 0.140579 
5.6458 4.222 0.032676 0.0313619 
11.5084 3.5979 -0.0403027 -0.0703717 
4.6002 5.2236 0.0299886 0.120036 
13.8972 5.8694 -0.0165616 0.0253428 
6.3655 4.8727 -0.239213 0.0439348 
2.6535 3.2308 -0.0335025 0.00575041 
4.9455 3.7215 -0.219407 -0.266137 
9.4503 3.3221 0.242272 0.245051 
13.6266 2.355 0.143802 0.18825 
0.6767 1.3712 -0.138026 -0.0457668 
8.3284 5.524 0.0570176 0.0292511 
12.1203 6.4091 0.0329184 0.0952982 
9.217 2.8483 -0.0112758 0.0267677 
11.4872 2.5978 0.0948976 0.149491 
3.7087 2.9634 0.122175 -0.209767 
9.5805 4.8456 -0.11206 0.0252974 
9.7001 2.1822 -0.134355 -0.148368 
1.1836 2.1722 0.0737 0.00141695 
8.275 6.1238 -0.0993421 0.160192 
7.1967 2.9717 -0.0971286 0.0540444 
7.5358 3.8418 -0.0834822 -0.00953256 
6.3905 3.8359 -0.0836714 0.1265 
0.7838 3.2672 0.0714664 0.132635 
11.665 4.1256 0.251573 0.172168 
6.9269 6.5872 0.205884 -0.0374292 
7.1582 3.2708 0.147201 -0.0262383 
7.3141 1.9739 0.0178727 -0.00468777 
3.5701 3.9718 0.100842 0.0844609 
1.5874 5.6047 -0.0109854 0.169955 
3.6124 5.4376 -0.0806273 -0.138691 
0.8669 4.307 -0.225747 0.263896 
13.9993 2.1774 -0.0446354 -0.0229599 
8.912 3.6776 0.0180583 0.0958493 
5.6753 4.4858 0.0708746 0.154324 
7.5835 2.4624 -0.153574 -0.135109 
7.6449 1.7588 0.205365 -0.0619812 
12.2704 0.5343 0.0692549 0.172276 
2.7418 3.4142 -0.272218 -0.195408 
4.7646 4.7711 0.153677 -0.18436 
6.6772 2.4222 0.175835 -0.0137412 
6.702 1.577 -0.150257 0.157064 
9.1393 1.7994 0.0824015 -0.388062 
13.04 3.0813 -0.0278975 0.252753 
12.8164 2.0601 -0.19884 -0.0187256 
10.0234 2.1965 -0.335328 0.0295838 
11.6654 3.1039 -0.338219 0.0655662 
6.1113 4.8791 -0.0169528 -0.103109 
6.3955 6.129 0.131042 -0.148029 
13.9851 5.6703 0.194434 -0.146588 
10.0185 3.6044 -0.0707363 -0.212357 
11.2371 6.0027 0.017241 0.0491348 
0.6479 2.822 -0.0417729 0.0243052 
10.9803 6.7356 -0.146103 -0.0932884 
12.4785 3.0355 -0.11031 -0.119824 
12.7077 6.0203 -0.190357 -0.10351 
8.1835 4.1739 0.122275 0.348488 
3.3351 4.5909 -0.0133746 -0.0523092 
3.3454 4.3594 -0.0627403 -0.188213 
4.1367 2.8305 -0.0622894 -0.0862149 
11.4322 3.8021 0.246885 0.128192 
7.2859 1.756 -0.0861118 -0.0850037 
2.2364 4.7839 -0.153687 0.00767859 
1.6484 6.3284 0.0614158 -0.105553 
5.8387 6.2801 0.0605281 -0.054914 
9.9308 2.9552 0.263849 -0.0180934 
10.9999 4.4672 -0.0613221 0.00552765 
12.6153 1.8691 0.110707 -0.116614 
13.2186 1.7683 0.109442 0.33177 
8.4559 4.6796 0.0326361 0.0417314 
6.94 0.5792 0.163685 0.111356 
7.9159 0.7875 0.0547194 -0.127639 
10.6963 5.9174 -0.214283 0.159152 
1.5498 3.4107 0.0208159 0.196381 
9.9603 5.2728 0.12496 0.0330516 
3.1235 1.81 -0.331305 0.0367083 
4.5224 4.7416 0.0832575 0.218032 
11.7794 5.5912 0.114713 0.0438609 
8.7599 5.2394 0.172423 -0.0450208 
8.2683 3.8201 0.0994295 -0.156177 
2.1843 6.0331 -0.154886 -0.112375 
9.1712 4.6813 -0.147865 -0.0860515 
4.0799 3.8546 -0.0644125 -0.0816812 
10.3173 2.3112 0.0140999 -0.128607 
3.7828 5.9212 -0.0930048 0.217193 
5.6766 3.7688 0.307628 0.156792 
0.684 1.5859 0.143839 0.105836 
10.5327 4.807 -0.156811 0.202043 
4.3652 2.3085 0.147888 -0.125485 
7.7547 4.7947 -0.18548 -0.101026 
9.3164 2.5942 0.0212022 -0.0228601 
2.245 0.953 0.0816021 0.074416 
5.6135 6.4031 -0.014641 0.142258 
0.9378 1.2115 0.142136 0.11142 
9.4951 1.5429 -0.256498 -0.104497 
6.972 6.1882 -0.0280933 0.22339 
10.9431 6.5344 -0.0185496 0.11907 
10.7217 3.2398 0.206832 0.119146 
0.7252 2.0318 0.344653 -0.370582 
11.0656 0.7164 0.146989 -0.109621 
8.9422 4.3306 -0.320478 -0.0731393 
4.4974 2.53 -0.0895298 -0.166579 
9.0734 1.3423 0.0138555 -0.0683172 
3.4292 2.9431 0.235909 0.0523918 
7.7879 2.2341 -0.0481376 0.0552264 
6.2805 3.4464 -0.0894835 0.175656 
3.8828 2.3956 -0.00957433 -0.0121282 
2.4876 2.0543 0.0857669 -0.0521765 
13.6948 2.6762 -0.0255052 0.00197444 
7.626 2.9957 0.0359491 -0.0142578 
3.7813 3.154 0.142005 0.00357417 
6.895 1.9159 -0.119072 0.0666419 
13.0403 1.3248 0.0575453 0.399594 
13.7287 6.0853 0.107269 -0.0661768 
6.3171 2.1696 0.217286 0.191519 
7.4142 2.6537 0.0613464 -0.0559026 
4.9326 1.8574 -0.159254 0.0228107 
2.6187 5.3546 0.07388 0.0519896 
13.2378 2.5248 0.0372783 -0.0770322 
7.9577 5.2565 0.030793 0.249096 
1.8499 2.4003 -0.0363927 -0.00782757 
10.9525 3.1177 0.164143 0.248597 
7.7555 5.2593 -0.0123521 0.0160952 
1.3894 6.2096 -0.0996811 0.105145 
9.4002 4.0173 0.0948362 -0.00237889 
4.8892 0.932 0.199144 -0.0574005 
9.9501 3.8246 -0.0763204 -0.013377 
9.9183 4.9538 0.0941973 0.0435002 
3.5816 1.1181 0.0211585 -0.0912405 
7.419 5.6809 0.057392 -0.0277158 
6.8566 5.3336 0.105889 0.10557 
1.8143 0.916 0.0555606 -0.0149111 
2.7101 2.0175 -0.00954437 0.0236505 
12.6287 5.1265 -0.0677336 0.0230776 
2.6172 1.1336 -0.0193581 -0.0160045 
3.511 2.7176 0.228358 -0.00815515 
9.4992 6.5928 0.144343 0.135326 
10.4196 1.2033 0.153672 -0.0687352 
10.6185 6.748 0.0182969 0.0237594 
13.8493 2.3594 0.0181938 -0.0795988 
12.0831 2.8808 0.0694701 0.0211063 
11.7882 3.4404 0.155422 -0.0874633 
11.1034 3.3183 -0.0353292 0.0298663 
2.0636 0.5045 0.0214917 -0.0193495 
11.1231 6.2859 0.0105209 0.0842332 
12.1026 3.537 -0.0821597 0.053869 
12.097 4.0339 0.114589 -0.0748852 
8.2504 3.5707 0.0807662 0.101598 
3.7633 4.5891 0.136549 0.126576 
2.9307 6.225 -0.169613 -0.372719 
12.1568 5.0475 0.0619798 -0.0542156 
2.6079 2.749 0.281635 -0.199007 
4.5228 6.5398 0.151543 0.213316 
12.5171 4.1102 0.209825 -0.0800361 
12.0747 5.43 -0.174574 -0.0626841 
3.5523 2.0127 0.100007 -0.0250145 
3.3029 1.0897 0.000775907 -0.0571084 
9.3097 6.7728 0.075645 -0.0680546 
8.9583 5.7511 0.0102001 -0.110114 
3.1346 0.5067 0.0486943 0.12067 
9.9515 5.9196 0.218196 -0.0858242 
10.3709 4.5206 0.153721 -0.0519986 
3.6187 6.4131 0.0739666 0.223275 
10.1525 2.9315 -0.0918463 -0.150474 
3.3365 5.9381 -0.172754 0.00604937 
4.7856 4.4959 0.0305622 -0.0328275 
3.8243 1.8892 -0.109697 -0.0931323 
9.518 0.8292 -0.21442 0.0299382 
6.2039 3.2106 0.342294 0.000317071 
4.0733 6.5197 -0.124778 0.0266877 
4.1229 5.6162 -0.0549681 -0.0808333 
13.39 4.6407 0.0544916 0.0134236 
13.2335 1.4069 -0.0180473 0.128953 
0.5702 5.1018 -0.0531087 0.0913009 
11.9728 4.8069 0.0368049 -0.103711 
5.2857 1.7237 -0.0285011 0.110454 
12.139 4.3425 0.067773 0.00608899 
3.1244 4.5745 -0.196054 -0.0863343 
10.4464 6.2556 0.0409678 -0.116541 
2.0094 0.7078 0.0672982 -0.0021855 
6.5307 4.1772 0.188591 0.221828 
6.8776 0.9806 -0.0612194 0.0318712 
8.2422 1.2468 -0.0629314 -0.145339 
3.0585 5.5645 0.000823473 -0.116857 
5.0204 6.0334 0.0294178 0.00930765 
13.9715 3.677 0.0829654 0.0433125 
5.7255 2.8982 0.099914 0.245993 
11.6901 5.9914 -0.0191729 0.0886426 
3.2295 0.8442 0.0492138 -0.0276394 
10.0435 0.7972 0.226662 -0.185244 
13.4585 5.2838 0.068986 0.0991502 
7.1542 5.7532 -0.0910783 -0.0217142 
13.9075 2.8674 -0.0104673 0.00558319 
12.0526 3.2548 0.0459183 0.249224 
12.3029 0.8744 0.00845066 0.012099 
1.8281 2.946 0.0873396 0.225831 
8.5979 6.7873 -0.229614 -0.127823 
0.7832 4.5204 0.0254641 -0.332903 
8.1094 6.5131 -0.169755 0.338682 
12.3915 4.3071 -0.1894 0.138508 
9.0285 0.6655 -0.0501432 0.0862615 
3.8119 3.5843 0.0295259 0.0975377 
3.9852 4.1415 -0.077084 0.130627 
7.5033 2.8363 0.101541 0.165733 
7.6121 5.9799 0.278651 0.258351 
2.8629 3.8803 0.101656 0.152692 
8.9259 2.3067 0.00881832 0.0968255 
4.5743 5.7657 -0.0993602 -0.0962625 
5.7301 5.7582 -0.0930989 -0.252252 
5.9537 4.7012 -0.0812835 -0.3122 
8.7073 3.7856 -0.306663 -0.087091 
1.1246 1.0432 -0.1773 -0.0944267 
12.7232 3.4686 -0.118621 0.107595 
1.3648 5.159 0.074889 -0.101788 
10.2271 4.0165 0.123857 0.147238 
6.8211 4.1143 -0.125047 -0.0742713 
11.2918 0.6897 -0.17622 0.176056 
3.931 2.9491 0.139634 -0.0657669 
5.8885 3.4714 0.139197 -0.133179 
8.5872 6.1016 0.0389226 -0.0769195 
12.1 1.4998 0.0672505 0.0941429 
0.8055 5.6408 0.0511256 -0.0116494 
12.2574 3.0824 -0.131654 0.00331637 
10.9537 2.0789 -0.0439281 -0.140205 
13.7856 6.7503 -0.385165 0.0523215 
0.9903 2.7084 -0.0445427 0.0836146 
10.6432 2.2118 -0.253029 -0.277404 
7.1288 4.9412 -0.0961598 -0.141286 
10.9332 2.5343 -0.156661 0.162141 
10.7594 1.0086 -0.0513303 0.137123 
5.7886 4.8461 0.0719051 -0.216512 
3.8123 0.6924 -0.0963477 0.0109317 
10.1491 4.4697 0.314076 -0.20151 
2.9825 4.904 -0.0290624 -0.240749 
10.6679 1.2032 -0.197757 -0.0864912 
5.8258 6.7251 -0.18314 -0.0759377 
10.3509 5.6265 -0.00210757 -0.18049 
2.0447 5.385 -0.169894 -0.0640934 
7.2619 3.7215 0.00612324 0.230676 
11.1814 5.5339 0.0885148 0.0901073 
1.3899 2.8763 -0.181732 0.0467723 
13.2203 5.8448 -0.0200226 0.077862 
1.2065 4.538 -0.263573 0.0192575 
1.1898 1.3805 -0.211141 -0.0174824 
13.2549 2.2926 -0.148493 0.238835 