ITEM: TIMESTEP
0
ITEM: NUMBER OF ATOMS
1960
ITEM: BOX BOUNDS pp pp pp
0.0000000000000000e+00 2.8000000000000000e+01
0.0000000000000000e+00 7.0000000000000000e+00
-1.0000000000000000e+00 1.0000000000000000e+00
ITEM: ATOMS x y vx vy 
2.161 5.3625 -0.0786787 0.20351 
4.0567 2.0124 -0.0825833 0.157541 
9.1404 5.6485 0.0658141 -0.151978 
8.479 3.7093 -0.259683 0.0418578 
11.5293 2.656 0.0307213 0.0654447 
13.3372 6.4388 0.0296822 -0.0278882 
10.8752 4.2364 0.0118897 0.112982 
1.263 2.9353 -0.114707 -0.0681962 
9.7387 3.7436 -0.191187 -0.125566 
6.123 6.6491 0.123134 -0.0671888 
3.4362 3.0674 0.193341 0.15715 
9.4631 5.446 0.194593 -0.0975907 
5.3281 4.3216 -0.055378 -0.0640829 
6.7087 0.699 0.0387 0.237954 
1.9572 5.0514 -0.0703801 0.0508858 
12.0862 5.6456 -0.18996 0.000810627 
13.1633 6.7064 -0.119395 -0.165111 
7.6697 3.671 -0.0108439 0.119537 
12.794 6.2037 -0.136528 -0.120839 
5.7105 4.6139 0.0150904 -0.070384 
8.5049 5.6274 -0.137749 0.033797 
4.4506 5.1225 0.0031461 -0.00348757 
7.7466 0.9042 0.256841 -0.143031 
6.484 5.2642 -0.0847291 -0.129915 
5.2154 5.187 -0.243838 0.220315 
1.9375 3.8588 0.0292395 0.0946921 
8.6389 3.9265 0.0291127 0.172409 
2.9289 2.4049 0.290598 0.135545 
8.0052 3.4399 0.0189517 0.147631 
13.148 3.3588 0.00553489 -0.143177 
8.0953 5.3558 -0.109468 -0.122263 
5.6778 1.2489 0.041162 -0.29211 
11.8244 5.4183 -0.167566 -0.0277943 
7.9706 2.915 -0.0547613 0.168658 
12.4249 3.7867 0.0036242 0.0318552 
1.8809 4.1256 -0.069506 -0.130811 
10.2274 5.5151 -0.0673792 -0.0680011 
13.5301 5.6044 0.0702059 -0.0237489 
6.8222 4.1869 -0.0348966 -0.0720508 
13.2 2.8221 0.0881032 -0.0771306 
2.8933 5.7856 -0.0365169 0.080678 
11.5247 0.7919 -0.153785 0.00230538 
13.4177 1.3411 0.0160275 0.272801 
3.2249 0.7111 -0.147939 -0.157522 
6.9681 5.9961 -0.186471 -0.130861 
12.9289 1.8977 -0.129744 0.23009 
1.7552 4.5421 0.0478225 0.0858344 
4.4496 0.836 0.112088 -0.062727 
5.9751 4.2843 0.230916 0.0658708 
13.6133 1.6693 0.0564139 -0.162665 
10.9618 5.8588 0.158621 -0.0794686 
3.894 3.2237 0.0136381 0.0933965 
10.3036 6.516 -0.0811325 -0.0967839 
12.222 6.2432 0.185411 0.0236429 
4.0729 1.0618 -0.046167 0.0106272 
6.8486 3.7375 0.09473 -0.107678 
1.6113 4.0696 -0.197853 0.107547 
6.8508 1.3155 0.0463937 0.0378248 
7.5663 1.8073 -0.039571 -0.00901043 
11.6208 4.079 0.0751235 0.0405022 
12.2526 3.005 -0.0809957 0.191981 
8.6563 4.9464 0.0802343 0.0456789 
3.4118 4.7969 0.00703391 -0.0247277 
1.2772 0.7422 0.349423 0.244867 
11.1623 3.3533 0.199597 0.171779 
7.8775 4.9424 -0.156271 0.0172476 
3.849 4.541 -0.123407 0.127941 
5.5079 6.25 -0.298954 0.228231 
8.5299 1.637 0.000977193 0.00523991 
0.6995 0.6236 -0.140817 -0.0999224 
11.7751 3.3504 0.321425 0.0703615 
11.9974 1.6095 0.0564786 0.289686 
3.0145 3.8063 0.328176 -0.0670104 
7.7788 6.73 -0.0348398 -0.04294 
9.8494 3.978 0.0739335 -0.184073 
6.2105 4.051 0.128329 0.179207 
2.8311 1.2817 -0.0535373 -0.168583 
11.5884 2.251 -0.0239853 -0.10037 
3.5886 3.7784 0.0969264 0.284474 
6.8714 1.5405 0.20012 -0.141227 
9.3921 0.6267 0.152524 0.0604255 
11.768 5.6788 0.176895 0.0435406 
2.5434 0.5422 0.173424 0.186498 
4.5122 5.9652 -0.0058517 0.0779201 
5.7169 0.5847 0.284494 0.0524426 
9.3748 2.5449 0.021358 0.0741692 
7.3725 2.3787 -0.0955806 -0.110158 
9.9803 6.5111 0.120344 0.00648888 
10.3895 0.9533 -0.138546 -0.153755 
8.7129 4.6912 0.052804 0.111526 
9.1688 1.1106 0.00980389 -0.00864737 
10.6039 2.8213 -0.00855892 0.0412481 
4.5336 2.2211 0.163694 0.220892 
3.689 2.4659 0.277738 0.0710212 
10.9476 1.2328 0.0551799 0.0426117 
3.9524 5.8712 0.0631815 -0.150122 
6.9841 5.263 -0.0835302 0.0281506 
7.1324 6.469 0.112231 0.116533 
12.4779 1.4936 0.159182 -0.00432325 
9.6743 2.6103 0.0458578 -0.100438 
3.1748 4.228 0.0134576 -0.084907 
1.722 3.8722 0.181744 0.183298 
2.465 6.1463 0.0710107 -0.00242149 
7.7434 0.6466 0.0178666 0.16454 
4.2365 1.2326 -0.215706 -0.177064 
3.0287 2.63 0.0727905 -0.0780044 
5.2123 2.7502 -0.131011 -0.153845 
3.7406 1.1103 -0.0184881 -0.0655266 
8.9824 2.2454 -0.299004 0.00718077 
8.5948 6.1617 -0.214927 -0.131612 
10.9302 3.3364 0.0931959 0.0295473 
12.4211 5.0458 0.0197469 0.185002 
12.401 0.5367 -0.0358949 0.378988 
0.7367 3.7296 -0.130565 0.156275 
10.6837 1.8847 0.0810634 0.10318 
10.3874 1.366 -0.0852916 -0.210121 
1.796 5.4004 0.14379 0.0387597 
13.1392 5.8345 0.0631145 0.0457057 
10.2874 1.1445 -0.063675 0.0120771 
13.5701 5.2464 -0.126037 0.0204921 
3.0809 4.9328 -0.238946 -0.131907 
7.2076 0.7613 0.0100943 -0.200151 
5.0876 3.6857 0.0212089 -0.0573583 
6.7824 3.3506 -0.0554407 0.0513672 
0.9427 3.1973 0.0368128 -0.0600577 
6.8924 2.122 -0.0996882 0.0923994 
6.2903 1.1728 0.0449586 0.179215 
11.1269 3.7751 0.0690044 -0.158048 
13.474 1.0059 0.109188 0.150485 
1.1848 5.4395 -0.0965002 0.242831 
5.1107 4.8426 -0.0909933 -0.184665 
11.6034 6.0096 -0.0572167 -0.148096 
6.419 6.3966 0.277274 0.0599213 
9.0115 3.2387 -0.0289172 -0.240287 
11.8824 6.3238 0.188345 0.208027 
5.0582 5.7648 0.22089 -0.0836341 
3.9023 3.8508 -0.122905 -0.0898671 
6.5476 3.9321 -0.108789 -0.0844802 
7.8405 5.9577 -0.253961 -0.00378153 
3.3546 1.4103 0.0781815 0.145542 
2.9428 5.5426 0.386268 0.0605166 
9.0695 6.3221 0.19083 0.136753 
3.0538 2.1374 -0.126357 -0.0567024 
6.2793 4.8881 -0.170967 -0.143422 
10.9706 6.567 -0.0657909 -0.154435 
1.6361 2.4291 0.0660523 0.0662418 
10.3926 3.7691 -0.060423 -0.149281 
3.6718 0.714 -0.00829075 0.00652472 
1.2707 6.1948 0.182854 -0.0256557 
0.9352 3.6204 -0.0476665 -0.12231 
2.2973 1.2438 -0.0665063 0.0949228 
13.4018 3.0557 -0.0161934 -0.124298 
11.1705 1.9256 -0.136358 -0.103809 
5.4865 2.4872 0.171446 0.135734 
12.5737 1.0632 -0.216107 -0.10676 
10.6289 0.9105 -0.00113385 -0.051983 
7.6692 2.174 -0.0940501 -0.0696527 
13.4825 2.3938 -0.213263 0.0788435 
1.1059 2.7598 -0.0428574 -0.353081 
8.2721 3.8225 0.0723991 -0.0524733 
8.41 1.1778 0.130455 0.0254226 
1.7459 1.273 0.0572258 0.0264551 
8.722 1.2206 -0.0171328 -0.0530299 
10.9216 4.0237 -0.0780619 0.0533559 
0.9121 2.4726 -0.00529994 -0.238054 
4.2094 6.38 -0.0864724 -0.074134 
5.9088 1.1628 -0.105446 0.15346 
9.9779 6.3099 0.0264315 0.160147 
3.7525 5.697 -0.159945 0.148667 
13.7584 6.7681 0.17676 0.0709774 
11.4972 5.0313 -0.0555864 0.0563504 
2.8916 4.3506 0.207079 -0.0590775 
6.7463 2.4132 0.209614 -0.185532 
13.6776 4.8384 0.0687387 -0.034763 
8.6769 1.4537 0.0638695 0.25707 
7.5218 5.2584 0.0560394 -0.00852566 
1.9736 6.6717 -0.0344491 0.0439115 
3.8957 2.287 -0.100831 0.0740332 
2.6351 3.7426 0.0373583 0.21007 
5.9844 4.6779 -0.143389 -0.0135397 
3.2029 5.2379 0.0396742 0.24889 
4.9226 3.5239 -0.0879675 0.0286439 
13.5804 4.0348 0.161996 -0.0343897 
11.7851 3.1481 0.0463878 -0.245392 
3.1727 1.9721 0.168635 0.153224 
11.4429 4.5602 -0.122493 -0.180811 
13.9374 5.4242 -0.0535988 0.184996 
2.2014 4.9236 0.148079 0.197913 
9.3739 2.0322 -0.0133403 -0.0321421 
3.2553 5.7298 0.184717 0.00684139 
8.1586 0.5593 0.19931 0.0866996 
8.5913 4.5157 0.0226125 0.0308487 
9.5192 1.0517 0.141692 -0.118073 
2.1489 5.7695 0.106182 0.172156 
5.5556 1.4613 0.167949 0.0781194 
1.4671 5.4442 0.0599421 0.0242116 
6.49 5.835 -0.0649601 0.030875 
11.1555 2.2659 0.0112827 0.0192863 
11.4288 6.7378 -0.00526175 0.148948 
4.6726 4.986 -0.0255494 -0.0840483 
0.9492 1.616 0.0982174 -0.108251 
13.1024 5.2964 -0.14038 -0.0417778 
13.8677 4.721 0.016932 0.1391 
5.95 1.4613 0.0556618 0.0134495 
12.5375 2.584 0.172219 0.030798 
6.895 3.0262 -0.110922 0.0132903 
5.6838 2.2187 -0.0760122 0.265962 
6.4884 4.5619 0.0574318 -0.161808 
3.3831 6.4804 0.0132146 0.0867221 
5.5007 6.6251 -0.1308 -0.0697627 
13.2161 3.814 -0.377395 0.105036 
5.3623 5.9989 0.0176188 0.311943 
5.4772 0.8698 0.0091435 0.154527 
6.6089 2.0897 0.0321648 -0.0693337 
6.4849 1.3895 0.234585 0.116627 
11.6429 3.7337 -0.11243 -0.261696 
2.3796 5.6102 0.119165 0.149117 
3.3881 2.5681 0.142284 0.0703813 
11.112 4.1146 -0.0661847 0.129757 
0.9384 1.2954 0.0564482 0.0314901 
6.0802 3.586 0.04103 -0.216745 
2.1285 2.6475 0.0830054 0.234419 
12.8337 3.7639 0.150379 0.19135 
10.1734 2.6352 0.0715463 0.0732889 
6.1733 5.6533 0.0134414 0.157442 
7.6455 3.9425 0.221892 0.0805981 
5.7042 4.9698 0.14133 0.143287 
9.7329 3.2117 0.224183 -0.0719236 
10.1262 4.9283 -0.134558 0.0755198 
3.7003 4.0649 0.0433317 -0.036219 
2.3801 6.6052 0.00888516 -0.0771606 
0.5201 1.8135 -0.229393 -0.0930502 
8.0731 1.2928 0.0849657 0.218457 
2.4779 1.763 -0.0503252 -0.0785437 
7.3639 1.2397 -0.155785 0.0357059 
7.4957 5.7647 0.0530629 -0.0696648 
1.0999 6.6246 -0.118693 -0.1509 
0.8227 2.8322 0.0364132 0.150543 
5.0794 1.8534 -0.155223 -0.0684521 
4.3634 5.6901 -0.218088 0.00135693 
10.3987 1.8544 -0.0229344 -0.0236141 
3.3247 3.3637 0.273575 0.0437454 
0.8997 6.4494 -0.12336 0.183905 
9.9597 5.6413 0.204472 0.136956 
5.7485 1.9892 -0.0300221 0.0200392 
1.1935 0.5076 0.268389 0.119393 
6.4983 2.494 0.330599 -0.256138 
7.2498 4.2727 -0.137041 0.0192612 
12.9712 2.6459 0.18401 -0.21764 
8.9094 4.3746 0.161492 -0.203596 
3.0422 0.6279 0.226848 -0.0528564 
7.0727 5.4837 -0.0220604 -0.239897 
3.8978 6.6569 0.11192 0.0190383 
12.297 4.2755 0.0783478 0.0233479 
9.2521 6.4744 -0.455027 0.108863 
3.4357 6.2404 -0.207381 0.113045 
3.5198 1.7833 -0.101196 -0.228679 
0.5208 4.847 -0.12968 -0.00763385 
10.9669 1.7162 -0.0190517 0.114398 
1.8397 6.264 0.131792 -0.00443872 
9.3214 1.8156 -0.106447 0.209238 
4.5272 4.1186 0.114787 0.118335 
4.9757 4.3218 -0.242244 -0.0321124 
13.7355 2.1833 -0.049902 -0.10062 
10.8613 2.6339 -0.161428 0.00477092 
13.0875 5.5724 -0.202288 -0.0602026 
4.4849 1.1714 0.0400347 0.0532471 
5.3268 4.889 0.134962 0.00419392 
10.8819 6.35 -0.215242 0.131268 
6.2831 0.656 -0.0998716 -0.253659 
6.563 6.0337 -0.398917 0.0984544 
1.9275 1.5709 0.116178 -0.207332 
5.6239 1.6608 -0.130448 0.136729 
12.9495 1.226 0.00571485 0.140838 
7.5103 6.1557 0.0567309 0.20328 
4.4981 6.3291 -0.165005 -0.109031 
9.8404 5.3269 0.265189 -0.0617622 
2.5681 0.9729 -0.0750164 -0.0440074 
9.0049 2.7158 -0.339345 -0.0399866 
8.7274 2.1556 -0.0964917 0.098216 
3.521 4.326 -0.0318965 0.0616758 
12.8706 3.2656 0.0745218 -0.202583 
10.1294 3.1761 0.0480381 0.0110865 
7.2122 5.7647 -0.0251268 0.191649 
6.4504 2.2482 0.167925 -0.0444665 
5.3998 5.3782 0.0806884 0.0770181 
2.5811 4.4659 0.0375564 0.0624811 
11.3032 6.0088 -0.105274 -0.0967319 
11.4383 5.2584 0.0360221 0.101198 
5.2958 2.2993 -0.110015 0.169827 
12.2427 3.3274 -0.191827 0.0369016 
1.4491 1.7677 0.178658 0.00767088 
2.6414 6.6176 0.0118342 -0.156491 
7.5882 2.5534 0.128077 0.146546 
0.7381 2.6007 0.0372482 0.0687522 
13.5591 5.9139 -0.0881247 -0.255233 
8.595 4.313 0.0417117 -0.0581371 
2.3509 4.0403 -0.0799554 0.281378 
11.3897 1.8122 -0.0309819 -0.0677923 
1.374 1.17 0.00821644 0.0908355 
1.2741 5.8219 0.0961246 -0.222079 
13.7472 1.8964 0.00741441 0.176239 
6.2234 1.9386 0.197022 -0.0309383 
8.2608 2.9719 0.356085 -0.131862 
2.4932 5.2312 -0.0550294 -0.0675636 
6.9768 2.4524 0.0253304 -0.0276923 
10.0222 3.4889 -0.0578537 -0.194211 
12.976 6.2917 0.208518 0.0532315 
8.8932 4.1489 -0.157433 0.287442 
5.4426 3.7751 0.0465544 0.0696486 
3.428 1.1929 -0.114378 0.0102064 
5.9523 3.2921 0.171075 0.195317 
3.0332 1.2387 0.0429159 0.209944 
1.0664 2.2936 0.0779346 -0.133193 
9.4198 3.0819 0.0288558 -0.07605 
5.2226 1.5707 0.0478452 -0.154764 
12.3891 4.558 -0.113038 0.000964076 
7.807 3.255 -0.230175 -0.0513115 
12.5381 4.1323 -0.289356 0.0832691 
8.6626 6.6339 -0.0202958 0.0322451 
8.7349 3.157 -0.153063 0.172148 
0.9111 0.8102 0.18384 0.051235 
2.6901 3.1107 0.157994 -0.233647 
1.1429 4.8818 0.226658 0.261538 
11.5636 2.0143 -0.0440363 -0.155351 
3.7152 4.7515 -0.141722 0.0736954 
2.278 1.9361 -0.0220365 -0.0114133 
11.3597 2.1187 -0.0268964 0.195806 
0.9504 5.1945 0.0278312 -0.211141 
9.7357 6.0262 0.0837337 0.00615068 
12.0836 6.6827 -0.0805502 0.0327055 
1.6916 3.2916 0.0666255 -0.130464 
5.9071 2.1906 -0.0343366 -0.056502 
12.2954 2.6421 -0.147748 0.187094 
3.7936 2.9708 0.0235582 -0.172154 
11.7295 1.5644 -0.197141 -0.13744 
5.6127 5.3749 0.2446 0.122919 
12.8247 4.8686 -0.292355 0.0559982 
13.9304 3.8535 0.0250378 0.137701 
9.2408 3.8851 -0.0647493 -0.206101 
13.6191 6.5794 -0.321895 -0.127223 
1.221 2.4526 0.140517 0.297507 
6.6955 4.9188 0.126178 -0.111304 
11.7929 2.8656 -0.0340997 -0.222112 
4.7281 4.4683 -0.117451 -0.0019948 
6.6419 2.8072 0.248223 0.128947 
2.1097 4.5497 -0.118242 -0.0583327 
0.5463 5.5173 -0.306532 -0.019234 
13.4865 3.2636 -0.0216814 0.136436 
3.7489 3.581 -0.0907506 0.150128 
6.105 6.1951 -0.140821 -0.139645 
1.7272 0.7296 -0.022873 -0.0596112 
9.1321 6.7625 -0.0474263 0.147924 
9.7525 5.554 -0.0701881 0.150223 
9.4855 4.3077 0.0111573 -0.01385 
7.793 2.0024 0.103071 -0.0602618 
12.6417 4.5231 0.264033 -0.00937544 
6.5937 3.0195 0.0927887 0.192531 
5.8334 6.2324 -0.135416 -0.00206419 
6.4168 6.6088 -0.0381508 -0.19428 
10.7638 4.6924 -0.140083 -0.0769702 
3.5756 5.9459 -0.0759884 -0.238538 
5.0821 4.0535 -0.098904 0.022606 
13.6653 4.5782 -0.116206 0.101384 
13.8387 1.0579 -0.109116 -0.150835 
12.7363 2.4597 -0.164946 0.0050992 
2.4317 2.6807 -0.0584965 -0.263172 
11.9364 3.6936 -0.0487094 0.0428258 
6.6315 1.1813 0.275312 -0.0964531 
4.1884 5.0046 -0.236459 0.0433896 
8.3683 2.6557 -0.120016 -0.0201366 
8.1247 6.2419 0.00230797 0.180977 
10.7026 6.1569 -0.148565 0.156204 
3.8794 4.9511 0.241728 0.026581 
3.4883 3.5228 -0.168478 -0.0778566 
10.2379 2.9679 -0.149989 -0.0433306 
12.86 0.7243 -0.100703 -0.0093518 
9.8739 1.8671 -0.117708 -0.315375 
5.728 6.7719 -0.187264 0.133091 
2.7584 4.5814 -0.0856182 0.00303605 
7.5097 0.9567 0.132165 -0.00570766 
8.3951 6.5866 -0.0944884 0.204073 
10.7805 3.5063 0.0780332 -0.020686 
4.2855 0.5955 0.115932 -0.118041 
7.4463 2.9821 0.294593 0.0368192 
2.5448 4.8253 -0.116131 -0.0748889 
4.2324 3.1752 0.224117 0.112732 
9.0325 0.8106 0.0914128 -0.0676093 
12.7308 1.3645 0.0686784 -0.178268 
3.8168 2.6825 0.00182262 -0.082407 
10.4244 3.2414 -0.0459085 0.128969 
12.4874 6.5354 -0.0787477 -0.0405487 
9.8288 4.9215 0.147545 0.120894 
9.8826 2.3391 0.0388715 0.226503 
7.4187 3.6415 0.091049 0.0290376 
4.8371 4.7712 0.0755754 0.215559 
10.0362 4.3083 -0.0129497 -0.151802 
12.8802 1.5109 -0.104293 0.0669966 
2.2401 5.1288 -0.0889626 -0.36284 
9.2499 4.2343 -0.0176541 0.28021 
9.7004 0.944 -0.00593171 0.00392623 
5.9461 2.8192 -0.0274611 -0.0542851 
3.538 2.7647 -0.255252 -0.157651 
1.8872 1.0526 -0.0309894 -0.0879892 
6.2931 2.5166 0.0283633 -0.0338049 
9.6435 6.6965 -0.115973 0.0995506 
1.2636 4.3201 -0.0369565 0.0908226 
12.5638 5.8659 -0.0998891 -0.133583 
12.1061 1.2879 0.100291 0.0630941 
8.19 4.2533 -0.0377366 0.114359 
13.1113 4.3888 -0.0136106 0.137745 
10.2248 5.1924 0.00542828 -0.0325935 
13.0965 4.9045 0.226264 -0.166806 
6.828 0.8813 -0.0917759 -0.0743168 
0.5716 3.1768 0.0818061 0.185802 
7.6496 4.693 0.0420086 0.0238004 
8.9374 3.4496 0.166284 -0.0807228 
6.7194 5.4716 0.040964 0.430605 
2.8277 1.8931 -0.115685 0.0354656 
4.7368 1.6377 0.0512926 0.0090631 
11.9531 0.5033 0.181969 -0.0517248 
3.4069 4.0141 0.0358572 -0.10869 
0.5795 2.2454 -0.11131 0.00374745 
13.8428 5.7174 -0.12768 -0.00680113 
8.113 1.6693 -0.122494 -0.00488144 
13.1204 0.7145 -0.0963358 0.147979 
7.4364 0.5267 -0.123626 0.176156 
8.8603 5.7912 0.0349669 0.247144 
1.5921 6.6719 -0.374815 0.00488366 
8.6773 2.5345 -0.189032 -0.0414299 
9.9569 4.5022 0.0428592 0.159213 
0.5209 5.9182 0.0440884 0.073389 
7.0943 2.7398 0.00125107 -0.182687 
9.4987 1.6919 -0.093908 -0.0808534 
7.049 0.5938 0.0758107 0.121131 
2.3202 1.5054 0.0828078 0.138642 
1.4123 4.7664 0.164086 0.023534 
10.3384 0.5079 0.182604 -0.228225 
1.493 3.8392 0.0290093 -0.193207 
12.5667 6.2565 -0.167903 -0.0978962 
4.3209 3.4572 0.0575401 0.12256 
2.5202 0.7499 0.167318 0.170916 
10.5251 5.7264 -0.0230708 -0.0613385 
7.8008 1.6395 0.0700752 0.209478 
9.5367 2.3597 0.0466176 -0.106211 
7.7729 6.2875 0.0150112 0.0319852 
0.7524 4.6979 0.0704387 -0.0448557 
12.8804 4.0169 -0.246785 -0.138543 
10.3808 4.3716 -0.0333949 -0.0437277 
12.741 1.9861 0.227878 -0.117577 
10.3267 4.0744 -0.130569 0.117365 
11.8947 2.3734 0.0657762 -0.0374767 
3.979 1.8218 -0.00576062 0.0150559 
8.0674 2.5096 0.0484384 0.106308 
5.3002 6.7721 -0.128969 -0.047774 
6.2113 4.5709 0.12063 -0.12689 
1.8775 4.37 0.263782 0.118424 
6.7785 6.3464 -0.0613975 0.241885 
9.0542 4.8722 -0.192697 0.202968 
1.5036 3.6028 0.0985685 0.147925 
6.4849 0.5565 0.171538 -0.453154 
5.7905 5.8954 0.000988244 0.00707888 
9.4676 4.742 -0.0404666 0.0655951 
11.3597 6.5344 -0.152186 0.0666769 
4.6661 3.2101 -0.238369 -0.0181495 
3.2375 4.5514 -0.0655433 0.198498 
3.1152 6.4899 -0.00193928 -0.135037 
12.0506 4.2368 -0.0420391 -0.0230681 
4.4 4.7277 -0.107013 -0.0802617 
9.8071 0.6216 -0.0797809 -0.0483743 
11.3774 1.1383 0.0644573 -0.298264 
5.7918 3.1639 -0.0739363 -0.0126318 
2.1121 6.0913 0.000939684 0.0429321 
12.445 1.2789 -0.124813 -0.150613 
5.0912 2.1405 -0.0437109 0.0454506 
4.8674 6.7172 0.0383912 0.163782 
6.3526 3.8115 -0.207867 0.0661733 
7.1556 2.3512 -0.0815152 0.325275 
7.2891 1.9166 0.136585 0.0991631 
1.2111 3.9094 -0.0185272 -0.264367 
11.7664 6.6793 -0.142871 0.0166338 
8.1228 5.0752 -0.0992092 0.155617 
1.8919 4.7206 0.0163006 0.0233153 
3.7398 6.0902 -0.402636 -0.0217083 
3.1539 2.8433 -0.0318169 -0.275633 
1.7539 0.5292 -0.0566512 -0.0502384 
8.2772 6.7614 0.13925 0.0280528 
2.7831 3.5989 0.073617 0.134758 
8.2242 0.7533 -0.103206 0.0847735 
12.0057 6.1106 -0.221499 0.0697808 
12.6159 5.4981 0.264428 -0.0432422 
1.6568 5.7957 0.057169 0.108273 
8.6485 2.9272 0.118911 -0.0157704 
7.791 5.3707 0.157809 -0.127626 
4.9322 2.6973 0.121495 -0.0115536 
12.2333 5.8873 0.054801 0.112954 
7.7316 5.6241 0.049828 -0.0953175 
10.6034 6.6749 0.145051 -0.275572 
3.6875 5.1013 -0.121819 -0.12864 
5.5982 3.9921 -0.0118608 -0.237644 
10.1381 6.0027 -0.0163904 0.0772922 
13.6689 2.5521 -0.0871095 -0.0370804 
0.7439 5.2883 0.00102435 -0.0146222 
3.558 5.3448 -0.181411 0.138016 
4.7387 2.5234 0.0226548 0.160479 
0.912 4.9588 -0.414805 -0.33683 
5.3604 5.7216 -0.0925423 0.0693398 
4.8573 5.0888 -0.0814279 0.0700973 
8.3337 5.3329 0.017429 0.00929949 
4.1963 5.8542 0.249354 0.0600646 
11.6778 1.3028 -0.13007 0.156455 
0.9215 4.404 -0.0896702 0.0829917 
13.9029 0.8079 0.0182545 -0.213332 
12.1439 0.649 0.315872 0.00925719 
13.1693 2.239 -0.209855 -0.00889331 
8.8499 6.2981 -0.329929 -0.1013 
2.646 3.9916 -0.237375 -0.162762 
11.2216 2.4911 -0.0503022 0.0371724 
9.9335 2.5352 0.0225062 0.022299 
2.1556 2.9494 0.0254955 0.148167 
2.1574 4.3191 -0.201089 -0.0939011 
8.1556 3.9983 -0.0214285 -0.219655 
8.8045 0.6029 0.00980075 0.0147512 
4.8597 5.5361 -0.142303 -0.226558 
6.9998 1.0056 -0.235445 0.00350058 
5.745 2.5946 -0.0812201 -0.0760812 
4.6507 3.4915 0.130623 -0.191555 
8.1493 4.684 0.0201229 -0.000973337 
1.4489 4.2399 -0.124975 0.372039 
11.2214 5.4009 0.137454 0.0738159 
2.9285 2.974 0.070408 0.010497 
4.0503 4.3034 -0.126119 -0.187409 
8.0467 5.947 -0.0634435 0.00833971 
6.6407 6.758 0.0326332 -0.0707613 
7.7567 3.034 0.00489172 0.137961 
4.3298 4.2745 0.0380875 0.0950264 
2.8451 1.512 0.0288513 0.168716 
8.5654 2.7344 0.293091 -0.0838266 
8.2508 1.4631 -0.00356541 0.0861646 
7.4782 1.5704 0.18322 0.0728939 
11.9777 0.7619 -0.20423 -0.131313 
5.6872 3.5316 -0.0257461 -0.0800929 
10.1596 6.7733 -0.0095738 -0.00598927 
5.206 2.5478 0.142543 -0.20077 
0.8234 6.1011 0.0126909 0.0212486 
9.6465 5.1721 0.140757 -0.171373 
8.6797 3.3518 0.0558879 0.0798047 
4.8514 1.4221 0.0853236 0.0608879 
2.9293 6.6412 -0.0884645 0.413936 
0.7342 1.4669 0.0813232 0.240452 
6.5689 3.2828 0.0490169 -0.234115 
12.7129 5.0399 0.088478 0.0658569 
12.3659 2.2527 -0.0497683 0.206004 
2.0997 2.4018 -0.0509053 -0.205729 
4.8694 0.9065 0.154702 0.0266496 
7.618 6.5894 0.0954991 -0.0486272 
1.967 2.0777 -0.00845304 0.131385 
11.2482 5.7427 -0.0179233 0.125611 
10.9897 0.9959 -0.0713781 -0.132009 
8.0899 5.6131 0.141556 -0.0416442 
2.9183 6.2047 -0.0580291 0.140594 
7.1576 3.6166 0.0847703 -0.0677304 
10.6108 4.4325 0.0347353 0.0285923 
1.3094 3.6829 -0.234185 0.112347 
9.2733 2.8231 0.263298 0.013248 
7.3431 4.0708 -0.221488 -0.181717 
5.031 1.206 -0.0909321 0.00921672 
10.7908 5.6753 -0.154728 0.0190007 
5.1815 0.9781 0.0749779 -0.0970693 
6.438 0.9547 0.0493435 0.093014 
9.2137 5.4295 0.0248004 -0.0182656 
2.3619 0.9723 0.285187 0.21719 
10.8203 3.1119 -0.165266 0.143162 
6.1573 1.4761 -0.0663133 -0.129224 
3.2108 6.1683 -0.15561 0.0191232 
3.8917 1.5228 0.0611498 0.27762 
9.1286 2.4299 0.239717 -0.215616 
10.0658 0.5248 -0.116562 0.151219 
2.7256 5.4329 -0.0373254 -0.0654548 
6.8344 3.9392 -0.189012 -0.146726 
13.4516 4.7549 0.14889 -0.0347103 
4.337 1.7012 0.276254 0.0329534 
2.6383 1.5664 -0.155779 -0.0873515 
4.9468 3.2358 0.107215 0.111745 
3.3431 5.9446 -0.139104 -0.08297 
7.1524 4.6972 -0.0813578 0.113796 
1.3687 5.0174 -0.132533 -0.0577469 
4.6542 6.1116 0.0741276 0.18755 
7.341 2.7781 0.0144608 -0.054642 
0.8448 4.0687 -0.205027 -0.154653 
5.5901 5.1623 0.0495342 0.296582 
11.4084 2.3946 0.0427685 -0.105458 
12.8746 4.4807 -0.0312533 0.134371 
5.7273 4.3692 -0.158938 -0.0409008 
10.5471 1.5874 0.0856513 -0.143962 
9.4666 4.0453 0.163105 0.0961379 
9.9349 6.1129 -0.155007 0.108997 
6.0826 2.5652 0.112657 -0.354311 
12.5542 2.18 0.199256 0.0278616 
5.4742 0.5231 -0.0773186 -0.393573 
10.9815 5.2695 0.175203 0.173384 
12.3532 5.4885 -0.126254 -0.0225381 
8.9141 1.8382 0.0304835 0.0831922 
5.4295 3.1945 0.217184 -0.0440986 
0.5581 6.1498 0.0961713 0.0898097 
10.7571 6.5075 -0.00917107 0.0261654 
3.2026 5.4857 0.0553168 -0.225542 
1.3389 1.9602 0.079667 -0.0173663 
5.0614 5.4071 0.171691 0.103527 
13.6842 1.341 0.106105 0.220465 
9.8518 4.6922 -0.268115 -0.234745 
2.625 4.2066 -0.105507 -0.0883294 
9.5842 3.4729 -0.0295916 0.0937357 
9.202 5.1114 -0.084765 0.0710593 
11.4379 5.5424 0.0280578 0.0811933 
9.3765 6.1153 -0.0154498 -0.0937338 
2.2809 2.1878 0.0219592 0.101519 
5.8664 3.6293 0.154865 0.112308 
8.0964 2.045 -0.141995 0.0314843 
10.2503 4.586 -0.132842 0.0502382 
7.8741 6.4904 -0.140387 -0.0282785 
12.7882 5.2715 -0.0292273 -0.0571635 
5.9807 5.191 0.000818143 0.051511 
13.8286 3.6396 0.178599 0.0150326 
8.3903 2.3037 -0.130625 -0.0582496 
9.8537 3.0516 -0.196696 0.136494 
7.2935 6.0727 0.175812 -0.177786 
12.4949 6.7581 0.109793 -0.0105354 
11.2924 2.7161 -0.106831 -0.0638688 
6.0398 1.6463 0.0236245 -0.0520332 
5.4476 1.1914 -0.103709 -0.055566 
6.6268 3.4941 0.205259 -0.178368 
12.8313 3.0637 0.186485 -0.125188 
5.5869 2.9706 0.0428581 -0.00965715 
10.1921 1.6736 0.0765133 -0.12067 
10.6748 1.2252 0.219605 -0.0390852 
2.2573 3.8249 0.0834913 0.105701 
9.5641 6.2858 -0.0155143 0.039174 
1.0964 3.3566 -0.169911 -0.113265 
7.1047 1.3057 0.0178737 -0.120002 
12.4804 0.8844 0.367928 -0.18008 
12.3167 2.0352 -0.0312089 0.00128617 
4.2681 2.1631 -0.179473 0.0920431 
3.6529 2.2344 0.152838 0.160409 
10.3273 2.4052 -0.075561 -0.0699774 
4.7261 1.2499 0.156781 0.176495 
13.8007 5.9419 -0.370297 -0.085516 
1.6476 5.1719 -0.140152 0.179054 
7.8507 4.4192 0.169666 -0.228336 
3.0295 4.0738 -0.281765 0.135298 
5.477 2.7497 -0.00687785 -0.0691471 
8.4651 1.8573 -0.332066 -0.117213 
3.7469 2.0265 -0.08223 -0.00955272 
13.1628 1.508 -0.0241317 -0.136263 
11.6799 1.8221 -0.0610954 -0.0406519 
10.905 2.8527 -0.224881 -0.0616409 
9.279 3.3663 -0.136828 -0.0583447 
0.6387 4.5267 0.191784 0.0252468 
1.1314 1.4054 0.0973001 -0.214034 
11.5233 6.2982 -0.00554282 -0.157824 
10.8617 2.2256 0.0820182 -0.142951 
7.3571 3.2777 -0.0481158 0.0381084 
10.1736 5.7628 -0.0147949 0.200833 
6.9354 4.8132 0.0057207 -0.00508968 
11.2267 1.5357 0.0222374 -0.17807 
10.1086 0.7536 -0.231584 0.184192 
9.1235 4.4691 0.175834 0.0258521 
9.7187 2.1996 0.0205826 -0.150581 
10.5765 4.1299 -0.0821435 -0.131094 
2.5238 3.5641 0.241015 0.11586 
1.8605 2.4858 0.0177735 -0.267659 
6.604 4.2015 -0.0448483 0.0657907 
13.1088 2.4451 -0.0785185 0.124173 
9.002 1.5182 -0.058684 0.232713 
8.798 5.4656 -0.00391412 0.230666 
11.2385 4.5551 -0.182258 -0.0995778 
9.7494 1.1438 -0.0392129 0.055607 
9.333 5.8416 0.257643 0.00500635 
0.8523 2.0892 -0.134063 0.00113085 
8.5391 0.7965 0.0965872 0.150904 
2.8637 5.2179 0.00349922 -0.141781 
5.8023 6.4473 0.0420113 -0.0161149 
5.4266 1.6183 -0.0961447 -0.12128 
3.5345 4.9671 -0.145504 0.132985 
13.2617 1.9161 0.284007 0.085318 
1.3409 6.678 0.0865389 -0.09594 
6.227 2.1962 0.138184 -0.0843484 
2.0066 0.5139 -0.0663091 0.0579867 
2.7091 2.7613 -0.237677 0.0961265 
10.8296 5.0367 -0.284854 0.229335 
7.2379 3.8444 0.17219 0.00484675 
13.1783 6.2413 -0.162778 0.112671 
6.8903 6.6272 0.110358 -0.0697506 
2.1753 6.5084 0.0712832 0.113627 
6.4036 3.4818 -0.0131556 0.0175422 
6.9563 1.7446 0.0727444 0.0496506 
11.8268 1.1497 0.0440242 0.2203 
8.1366 1.0654 -0.0574216 -0.223369 
12.0202 2.1701 0.000348991 0.277196 
13.7234 3.2633 -0.114971 0.034599 
13.4277 6.1074 0.118845 -0.134113 
3.1858 3.164 -0.226503 -0.143371 
8.7906 3.6151 0.0319782 -0.158438 
8.2328 1.8955 0.112323 -0.0363915 
0.9009 5.7262 0.192634 -0.0807317 
11.9089 4.0308 -0.232991 -0.285967 
11.3617 3.9955 -0.0329931 0.0376983 
4.5102 5.501 -0.00102649 -0.169302 
9.4951 4.9662 -0.207335 -0.0530196 
8.0025 3.74 0.0374139 -0.135825 
8.9685 3.8882 -0.0713557 -0.104903 
1.7594 6.5469 0.0124319 0.0226203 
12.8664 5.9078 0.0135764 -0.0954456 
4.0724 0.7871 0.227856 -0.0198522 
4.2331 3.9668 0.0779466 -0.131155 
8.3926 4.6989 -0.0628622 0.0661579 
0.6403 1.1414 -0.0277323 0.0572776 
0.5958 6.4914 -0.239703 -0.206295 
12.1076 3.8841 -0.0724955 -0.138103 
9.6221 4.4637 -0.114474 0.168363 
2.8782 4.8709 0.140256 0.133874 
4.9663 3.8815 -0.0291675 -0.030049 
9.9793 2.0769 -0.157133 0.0578751 
4.125 4.675 -0.12757 -0.123249 
8.2776 3.3212 0.154902 -0.0429897 
4.3734 1.4065 -0.0958201 -0.0676563 
12.5988 0.6642 -0.00310257 0.0668402 
1.8536 2.9074 -0.0235234 -0.25656 
13.7302 5.4163 -0.00729858 0.154646 
12.2957 1.0671 -0.0132373 -0.194029 
10.4691 5.1427 0.142101 -0.0469951 
13.4633 5.0356 0.0109977 -0.0901605 
9.3704 0.8257 0.14985 0.107702 
13.3463 5.9228 -0.00148093 0.0584337 
6.4105 5.4972 0.0379347 -0.0577685 
11.0401 0.5492 0.0504095 0.103247 
1.1415 5.1036 0.168623 0.0108411 
1.3764 2.6779 0.25236 -0.076501 
11.114 3.1348 0.0250354 -0.0333365 
2.2923 3.423 0.0193676 0.101434 
7.4595 4.2448 -0.24323 -0.0207972 
9.4149 3.6024 -0.224226 -0.170237 
7.9752 0.8687 -0.141221 0.209132 
13.8395 6.3633 0.127809 -0.0069929 
9.0929 6.0301 -0.0429668 0.264888 
3.4453 2.314 -0.110148 -0.237376 
7.0806 6.7396 -0.16565 0.116271 
13.7775 6.1706 -0.0193609 0.15476 
7.485 4.8167 -0.28848 0.0944773 
11.9254 4.6477 0.00344294 -0.141344 
7.0473 3.4447 -0.0699826 0.211266 
12.412 1.7574 0.0166408 0.0611238 
11.2876 6.2369 -0.000975296 -0.101003 
1.3013 3.479 -0.128007 -0.0794828 
4.3727 3.7725 0.0988207 -0.053702 
5.0112 4.571 -0.0231979 -0.0182909 
9.4541 3.8272 -0.123726 -0.0477297 
13.7697 2.9066 0.000597166 -0.103775 
7.1469 1.6555 -0.128638 0.158074 
3.1856 3.5762 -0.118855 0.0194813 
0.6558 3.4729 -0.162596 -0.0435536 
2.8292 3.4001 0.372258 -0.158194 
1.7481 2.1183 -0.113725 -0.0380883 
2.0192 5.5906 0.0592021 -0.246678 
4.4854 6.6798 -0.0213681 0.035469 
1.4298 2.3955 -0.0816988 -0.324902 
11.9896 5.2049 0.135191 0.0397813 
9.7127 2.9088 -0.0161397 -0.161322 
12.2546 1.5285 0.183972 -0.0727694 
2.4831 2.2508 -0.0281419 -0.0567245 
11.3747 3.381 -0.229267 0.124209 
7.7504 4.2367 -0.00440325 0.162849 
11.4196 4.1924 -0.140453 -0.0708783 
9.621 1.488 0.200901 -0.0382078 
8.6265 5.9242 0.0476513 -0.0818599 
10.6092 2.4023 0.284864 0.0667237 
6.7005 4.6852 0.0269701 0.127099 
2.7019 2.4406 0.00475386 0.0792351 
3.1493 4.7428 0.0688365 -0.0938969 
13.7823 4.0031 -0.185181 -0.31662 
6.2828 2.745 0.0906237 -0.06303 
12.9534 2.0976 -0.284689 0.0886532 
10.0755 2.2581 0.308632 0.0917832 
5.2648 6.2557 0.0500616 -0.000781211 
4.6021 2.6839 -0.00897668 -0.137353 
10.9997 6.1838 -0.0224122 -0.0115061 
3.8977 6.441 0.0142339 -0.139636 
12.9198 2.3561 -0.191736 0.0892891 
6.3872 4.2786 -0.114288 -0.137511 
8.2222 5.8499 0.0575968 -0.0761768 
4.2024 5.2086 0.195408 0.0538433 
4.6927 2.9132 -0.00643211 0.0444047 
0.8584 1.8235 -0.166516 -0.257963 
12.2201 4.9274 -0.103562 0.036025 
10.6866 1.4263 0.105505 -0.0343073 
4.0366 3.6835 0.19435 0.214022 
10.4628 0.7445 0.0936952 -0.076412 
1.36 3.2873 -0.110355 0.148643 
5.0039 3.0048 -0.283944 0.160963 
12.9353 4.2527 0.0519817 -0.161424 
6.1702 3.1829 0.0545529 -0.138049 
10.9274 4.5121 0.16795 0.0812552 
13.4163 4.2474 0.0366208 -0.0236909 
4.8685 5.3035 0.0562178 -0.227443 
10.4593 2.1969 -0.0682051 0.067451 
5.2003 0.6166 0.0760937 -0.250369 
5.1914 6.5997 0.317146 0.118233 
8.2681 3.5503 -0.313688 0.0180325 
11.054 4.338 0.0988805 0.241925 
6.9605 4.4732 0.231188 -0.124787 
11.9501 5.0041 0.155218 -0.0924266 
8.1792 2.3372 -0.168959 -0.17951 
4.7202 2.1449 0.0536846 -0.129902 
3.6971 3.1598 -0.0510314 -0.122068 
10.4688 4.7038 -0.162786 -0.0176101 
13.9377 2.5833 -0.29753 0.00501066 
8.6028 0.5904 -0.238166 -0.012825 
11.0615 1.4228 -0.122257 -0.0375228 
3.0708 1.6564 0.0115811 -0.197961 
9.5952 1.8957 0.194807 -0.139135 
6.6371 1.8468 -0.0651346 -0.0618124 
12.3627 3.5089 0.0493208 -0.00939465 
7.6184 5.0352 -0.0145863 0.11421 
5.3707 2.9833 -0.138876 -0.103357 
5.8079 4.1417 -0.130587 0.0219856 
1.16 4.5746 -0.0751776 -0.0703077 
7.424 6.5389 -0.155635 0.147746 
2.1698 1.7097 0.119537 -0.116495 
3.4124 6.7918 0.0617989 0.146739 
3.33 1.6231 0.204361 -0.0307861 
11.5857 6.4945 -0.00149748 0.120894 
8.2094 4.8922 -0.171979 0.175675 
10.8179 0.6004 -0.0877153 0.108064 
0.5336 2.9615 -0.125816 0.0215713 
1.1762 2.1257 0.0290958 0.224646 
13.7972 5.0823 0.252601 0.0759561 
11.7343 0.6729 0.142646 -0.0325398 
12.5592 4.8593 0.20838 0.0930858 
10.3816 2.8255 -0.06808 0.10154 
6.007 5.7808 0.0140163 0.152213 
4.8361 0.5976 0.0996034 0.0401738 
3.9394 5.2935 -0.00683963 0.0185859 
2.5088 5.849 0.135078 -0.201931 
3.1303 0.937 0.0237582 0.0411971 
4.1475 5.4757 0.0086109 -0.112876 
12.8449 5.6234 0.0482245 0.23669 
13.8658 4.4259 -0.00890251 -0.0419651 
7.2564 3.1012 -0.094471 0.0727822 
4.5728 3.7926 0.227672 0.0591985 
10.7391 3.738 0.134331 0.19733 