ITEM: TIMESTEP
0
ITEM: NUMBER OF ATOMS
392
ITEM: BOX BOUNDS pp pp pp
0.0000000000000000e+00 2.8000000000000000e+01
0.0000000000000000e+00 7.0000000000000000e+00
-1.0000000000000000e+00 1.0000000000000000e+00
ITEM: ATOMS x y vx vy 
10.4039 2.0819 -0.10222 -0.0347688 
6.9305 2.0662 -0.0353404 -0.0425118 
10.1148 6.4925 -0.0817538 -0.13127 
2.158 1.6444 0.16384 0.0158511 
10.1887 5.6265 -0.0540927 0.0149953 
9.8603 3.183 0.0751427 0.000607277 
12.2567 1.5998 -0.418452 -0.111637 
6.1581 3.7705 0.121646 -0.106179 
13.7446 3.7076 0.0173334 0.0866335 
4.807 2.3254 0.17299 -0.0203617 
4.9625 2.1323 -0.127646 0.125912 
4.3636 1.9983 -0.268173 0.1403 
13.0386 3.1486 -0.0626183 -0.0911481 
11.2834 1.5195 -0.00203096 0.127162 
13.8681 6.2801 -0.0454351 0.11731 
6.3056 4.1607 -0.0166817 -0.0855775 
8.711 4.5221 0.149753 0.194574 
2.0708 4.9144 -0.10452 0.146389 
3.4061 3.4479 -0.199637 0.103716 
2.7792 2.2385 0.0749871 -0.127845 
1.8287 4.5199 -0.0922386 -0.0942624 
5.2417 1.4355 0.0604019 0.00212394 
10.7532 5.9089 -0.12095 -0.148201 
5.5615 5.655 0.0392007 0.141343 
12.778 2.6315 -0.0891949 -0.24807 
9.2124 1.5156 0.074611 -0.165825 
1.1276 4.0566 -0.24226 0.0951501 
9.1388 3.2734 -0.0903727 -0.0139766 
8.7485 4.0194 -0.0665911 0.229305 
6.8321 6.3996 0.0503683 -0.00628486 
1.9995 2.4668 -0.202473 0.16462 
1.4172 6.2555 0.122203 0.103531 
6.1758 2.5919 0.0445638 0.0248472 
2.949 5.1949 -0.109833 -0.280068 
11.8956 2.6473 0.147252 0.0627176 
12.7203 6.0607 -0.193233 0.245873 
0.8875 2.033 -0.254004 -0.249321 
11.1239 5.9954 -0.0810655 0.0307182 
11.2025 0.6398 0.163748 -0.278334 
0.5849 2.9223 -0.0394861 -0.00746128 
2.7922 6.1952 -0.0145627 0.319985 
5.5849 3.8387 0.12052 -0.0915523 
5.8387 6.6832 0.000901059 0.0642389 
4.4897 0.9918 -0.0233335 -0.233905 
6.0118 4.0389 0.202807 -0.2442 
5.1877 2.2714 -0.0232527 -0.0268175 
4.5194 4.9052 -0.100876 -0.197956 
8.5343 0.7171 -0.0942506 0.00681343 
3.532 3.1795 -0.0544479 -0.0109717 
5.4904 4.2673 -0.162 0.0619898 
7.2195 5.5912 -0.168759 0.0301935 
5.9517 2.2254 0.241776 -0.176916 
9.8115 4.9695 -0.0068859 -0.0635212 
3.1824 4.5903 -0.0215204 0.0935141 
1.6121 1.8941 0.0852892 0.182916 
6.5311 1.8745 0.27889 -0.00815268 
7.7998 5.6754 -0.0306403 -0.0597276 
13.5239 4.1033 -0.119347 -0.243808 
10.6288 6.1864 -0.00713324 0.028906 
9.52 4.7307 -0.0412997 0.402077 
2.2804 5.3617 -0.1119 -0.246387 
10.4988 6.6232 -0.11236 0.192901 
7.0837 3.577 0.197648 -0.20937 
2.5788 6.7758 -0.0811876 -0.135242 
9.7551 2.1628 -0.170894 -0.0854942 
12.963 5.5012 0.169032 0.00306643 
8.1083 3.0067 0.0727873 0.441721 
7.2067 3.7859 0.114254 -0.0299059 
5.5472 3.5085 0.0456745 -0.0611922 
7.8974 1.4796 -0.0359007 -0.0218668 
11.8647 1.2784 0.112164 0.166053 
6.5779 2.4162 0.0390715 0.00170891 
4.3437 1.582 -0.113039 0.00512766 
2.5196 5.1685 -0.226621 -0.0520601 
7.7992 0.966 0.107924 -0.118026 
13.4671 2.5156 -0.347142 -0.149882 
6.785 3.8997 -0.0927307 0.0608982 
3.8245 6.6136 -0.00577766 0.141133 
2.5107 4.6608 -0.0845452 -0.018582 
12.5219 4.2058 0.0151895 0.240686 
1.8563 3.3727 0.233408 0.064147 
3.8848 4.3408 0.0961818 -0.123606 
4.2112 0.6392 0.198397 0.0438837 
1.1646 5.03 0.174856 -0.124035 
6.2367 3.9636 -0.0629662 0.224684 
12.5743 1.8282 0.338319 -0.126604 
7.5089 3.2015 0.0530864 -0.0505547 
8.8152 2.0163 -0.0269982 0.159624 
2.119 5.7601 -0.0497368 -0.211651 
1.5177 4.5479 -0.0651285 -0.116132 
1.2009 6.4464 -0.192203 0.00540765 
0.6619 4.663 0.0412614 0.0512625 
6.0217 5.2811 0.213243 -0.192414 
10.2468 0.9696 -0.0471261 -0.193823 
10.1707 4.2252 -0.0133785 -0.0366929 
4.0033 2.317 -0.0223398 0.0709398 
6.425 4.735 -0.164577 -0.0328178 
7.258 0.6069 -0.0440169 -0.0589445 
8.1477 1.1469 -0.0775925 -0.00711253 
4.5974 4.3476 0.00976095 -0.231835 
9.59 6.0592 0.0119775 -0.103416 
5.2625 2.6454 -0.012586 0.151165 
6.1517 2.0395 0.0682026 0.169717 
9.4747 0.9988 0.195622 -0.187661 
10.8293 1.2525 -0.0954915 0.129967 
10.3807 3.284 -0.0481148 0.166649 
12.8866 4.8464 0.05587 -0.198353 
2.2797 4.5102 0.0489781 0.102622 
5.2561 4.565 0.20694 -0.166577 
6.7404 2.5998 -0.0503827 -0.0926944 
6.9887 5.6882 0.0740836 0.0599558 
13.5233 2.7412 -0.291331 0.0750627 
2.7603 1.9027 0.0156349 0.0606943 
5.1873 5.5287 -0.106209 0.0786489 
8.9945 4.417 0.181165 -0.0377648 
8.7679 6.69 -0.0839281 0.0620564 
5.7853 4.4503 -0.0665959 -0.116272 
10.3122 4.9462 -0.0891145 0.188809 
0.5602 1.0488 -0.0659375 -0.102768 
6.7108 5.4616 -0.10782 -0.186672 
12.4921 1.2331 0.114845 0.093854 
3.765 5.9711 0.111397 -0.00453374 
3.8591 0.8986 -0.0613244 0.139808 
3.3508 0.8078 -0.14732 0.106513 
3.432 4.8332 0.157532 -0.213073 
6.4723 5.1384 -0.25302 0.127453 
0.9257 5.3213 0.122856 -0.116892 
12.3399 3.8257 -0.115378 0.155695 
4.7473 3.6532 0.0195484 0.0106213 
7.8052 3.0077 0.148333 -0.00678283 
5.2552 3.673 -0.0551012 0.276693 
1.1698 1.5215 -0.0292562 0.0339882 
13.7576 0.7593 0.020436 0.0714594 
3.1429 1.0366 -0.0150403 0.0193495 
1.3239 1.968 -0.129066 -0.0481875 
9.5881 1.7391 -0.275248 0.263039 
9.9944 5.6944 -0.255168 -0.0448807 
3.971 5.6921 0.074988 0.0486488 
10.3288 3.9759 -0.0766106 0.193686 
6.0222 3.3089 -0.163159 0.185123 
11.0961 3.4653 0.143209 -0.118225 
3.3078 4.4158 0.404299 -0.0744374 
3.4969 2.5009 0.00630124 0.0768254 
9.0621 6.3431 0.136894 0.037871 
0.7592 3.6596 -0.0748285 0.244367 
6.7598 4.4966 -0.133985 -0.122569 
5.3431 0.6788 -0.114614 -0.269501 
8.1747 3.5484 -0.28312 -0.0927801 
4.3536 2.835 -0.0380692 0.139448 
2.2237 0.5475 0.249508 0.0835274 
13.1462 4.4205 0.0191783 -0.108188 
4.4443 3.8849 0.0209382 0.167043 
12.1952 4.8122 -0.0305009 0.0250931 
10.8894 6.1726 0.0224297 0.0680925 
12.8888 1.7201 -0.057694 0.173384 
2.085 4.3265 -0.222621 -0.00174617 
7.681 2.7797 0.264164 -0.112423 
3.523 1.7197 -0.116431 0.124122 
2.8876 4.8326 0.048163 0.136301 
4.775 3.0113 -0.0278143 -0.0239307 
2.4226 4.9866 0.0307601 -0.00879356 
12.2087 4.038 0.00210806 0.12695 
3.2023 6.2261 -0.112707 0.125223 
5.287 6.6758 -0.180429 0.133036 
7.1985 0.9004 -0.0954209 -0.0440319 
10.7972 6.6646 -0.170509 0.111641 
8.93 3.935 -0.143638 -0.091841 
11.0519 5.0018 0.0235554 0.184616 
5.7826 1.9845 0.0944186 0.0446876 
13.5079 1.7827 -0.214322 0.0840652 
1.3233 3.3139 0.182666 0.0350321 
4.2286 1.2775 -0.0683229 -0.0979024 
1.9125 3.8292 -0.238139 0.218199 
4.4875 6.1238 -0.118485 0.00514266 
12.7358 1.1816 0.0740899 -0.0585713 
2.4842 5.6362 -0.158776 0.121967 
12.1017 3.1216 0.00210374 -0.205954 
11.5373 6.6141 0.0507625 0.091955 
8.4497 1.5883 0.0458799 -0.0181045 
1.5628 4.1905 0.100845 -0.0927049 
12.5344 2.9183 0.014141 0.223263 
7.4178 1.7907 -0.21004 0.165671 
1.3813 4.831 -0.0554476 -0.18467 
4.5279 1.2964 -0.233748 -0.146373 
8.7973 2.5992 -0.159175 0.0732305 
11.6567 2.9224 0.0414336 0.0631099 
7.7272 6.6937 -0.241379 -0.0273068 
8.1018 1.829 -0.158245 -0.0928186 
8.3797 4.2121 0.101252 0.103681 
0.6219 1.6806 0.000487883 0.0995816 
7.3892 5.8539 0.182621 0.0771339 
5.5376 2.0996 -0.0395554 0.162239 
13.1825 5.5062 0.188076 0.329898 
12.9855 5.8793 0.0322631 -0.324739 
4.908 0.8122 -0.141481 -0.18392 
27.345 4.0684 0.11927 0.00480732 
18.2299 2.3842 0.127061 -0.0474421 
18.1763 3.5269 0.0276778 -0.0701883 
19.9106 3.905 -0.0587876 0.154688 
27.2981 4.6345 -0.130108 0.00951575 
23.5082 6.5631 0.375957 -0.183447 
16.1061 6.5613 0.01184 -0.041848 
18.0187 6.7921 0.0180823 0.180318 
26.2359 2.8749 0.378201 0.21767 
19.7399 5.5919 0.108359 -0.0113364 
22.9884 2.8785 -0.205491 0.328107 
15.8257 2.4077 0.078914 -0.13069 
25.2855 2.1727 0.132961 0.180888 
23.4822 1.1994 -0.10578 -0.252278 
27.3135 1.7416 -0.0678549 0.0303064 
25.8836 4.2507 -0.20855 -0.186428 
27.5639 1.6265 -0.201618 0.0906679 
19.731 4.9893 -0.0666637 0.197294 
26.1581 6.0411 0.10409 0.123347 
25.6918 0.785 -0.0794942 -0.139543 
26.34 4.2685 -0.0964085 -0.247993 
17.9283 1.3418 0.118967 0.0209469 
21.3727 4.7452 -0.0701438 0.256962 
24.415 5.5414 0.00216322 -0.0362177 
21.1866 0.9387 0.0461452 0.121039 
26.4159 2.1724 0.074558 -0.0659258 
22.9086 6.0811 0.246064 -0.0778714 
18.7411 5.9423 -0.0652262 0.134762 
17.1405 0.6817 -0.0422344 0.0130974 
22.0396 1.6297 -0.0772654 0.229847 
26.1796 3.0763 0.254467 -0.13175 
14.6071 0.7503 -0.0577995 -0.237732 
26.5826 3.8473 0.232184 0.0324711 
21.4879 1.1365 -0.163715 -0.182262 
15.6322 1.6837 -0.351395 -0.174081 
26.9126 2.3519 0.242213 -0.136825 
24.9445 5.7018 -0.123428 0.0416789 
26.4868 5.352 0.0167548 0.0392508 
21.1744 6.7621 -0.0068431 -0.0138068 
15.2134 1.1765 -0.0247567 0.00958982 
16.8471 3.9845 0.0557166 0.10126 
27.6323 3.7401 -0.0332641 0.00340426 
15.8298 0.5913 0.408665 0.14726 
20.3054 1.3524 0.203528 -0.104419 
15.2937 1.4469 -0.060465 -0.117322 
27.7055 0.9548 -0.171967 -0.0439659 
14.1241 1.8176 0.2605 0.113888 
26.8196 5.0447 -0.0495985 0.20118 
22.8904 3.5538 -0.0377348 0.0192628 
20.1185 4.8633 -0.00775698 -0.00980906 
20.1547 5.5927 0.0742164 -0.139961 
24.3864 6.4765 -0.0995157 -0.111502 
25.0596 6.67 0.166935 0.0053127 
16.4711 4.1329 -0.0440535 -0.055812 
20.4417 2.9237 0.0427575 0.252539 
24.4778 2.0918 0.00275109 -0.173294 
14.753 4.7035 -0.285957 -0.0170412 
14.1288 3.9607 -0.0347076 -0.185983 
21.892 6.4603 0.0171975 0.0282631 
19.9125 4.743 -0.142048 0.0774108 
22.2399 2.6063 0.00155384 0.111687 
26.4635 3.508 0.159403 0.12546 
14.0154 3.0268 0.134255 -0.161252 
22.2202 4.2654 0.0148827 0.0903217 
20.3729 4.686 -0.199619 -0.081001 
18.714 4.8497 -0.0238703 0.0437034 
23.9077 5.807 0.0290244 -0.159514 
19.8958 6.2156 0.0537346 -0.102934 
15.2662 4.9138 0.00665153 0.188794 
19.5077 3.6495 0.284348 -0.0830418 
26.6866 2.6262 0.0917702 0.0491664 
20.6168 3.1089 0.000965725 0.0421302 
24.5672 2.9463 0.174342 -0.109331 
16.352 4.8171 0.126602 -0.20728 
16.3556 2.9005 0.0333664 -0.0750925 
14.5523 5.6844 -0.0831426 0.0543806 
21.7588 0.9578 -0.0861022 -0.0161556 
16.9994 6.2184 0.181775 -0.14904 
17.7344 2.6634 -0.097305 -0.0264049 
27.2452 6.5474 -0.0944626 0.0757457 
26.1812 1.9527 -0.0959167 -0.159577 
20.9384 5.5124 -0.00972935 -0.0834237 
25.0527 2.7409 -0.212663 -0.005623 
16.5952 1.8554 0.0330314 -0.0816852 
22.8007 0.753 0.0171073 0.153729 
24.5785 2.6053 -0.223821 -0.0111085 
23.5002 3.5445 -0.202291 -0.0894589 
24.0803 3.2105 -0.274283 0.00552301 
17.6143 5.5115 0.0567247 0.127254 
21.9369 2.1298 0.358879 0.165283 
19.2394 6.0838 -0.0122931 0.0575597 
18.4287 6.504 0.0611781 -0.0755963 
20.5419 6.5398 -0.130844 0.0414709 
19.5762 1.9995 0.226964 8.65042e-05 
26.4861 2.9602 0.214318 -0.395403 
23.5697 2.6944 0.131116 -0.0688884 
20.0092 0.5865 -0.157641 0.045324 
23.1585 4.8914 0.0332835 0.228496 
26.3475 4.8634 -0.0958464 0.105478 
27.2782 1.9984 0.156888 -0.0064026 
22.9811 1.0529 0.107361 -0.0765762 
14.2852 2.1404 0.231348 -0.0905613 
24.7075 1.8168 -0.125665 0.0653165 
16.7108 1.5345 0.0874024 -0.0987997 
26.3463 6.3015 -0.0621604 0.110051 
21.7885 3.8182 0.213189 0.0763571 
23.9671 2.8414 0.115341 0.13918 
19.1782 1.8953 0.201971 -0.128405 
16.8157 5.7911 0.0401242 0.276326 
23.0521 6.3405 0.0278684 -0.139574 
15.3294 2.8824 0.0216705 -0.142238 
14.2479 3.1132 0.132072 0.0644414 
21.8142 1.5446 0.244204 0.197146 
22.522 1.606 -0.00469508 -0.115563 
23.1893 2.748 0.170345 -0.172456 
17.2503 4.5262 -0.141338 -0.171561 
27.0549 0.5668 0.026458 0.165635 
18.3671 2.2143 0.172618 -0.0273491 
16.4899 2.4855 0.0693629 0.136784 
25.6281 5.7122 0.0788178 0.137182 
19.4877 3.9981 -0.0234923 -0.287929 
18.8646 0.8952 0.0296896 -0.00421078 
25.2751 2.673 -0.171278 -0.0908179 
25.2017 3.0133 0.115529 -0.162088 
24.1275 5.9608 0.0535461 -0.0307481 
20.3783 2.5572 0.115124 0.075208 
24.2912 4.7907 -0.0251862 -0.0873232 
26.0856 1.1956 0.0425109 -0.184583 
25.6451 1.6006 -0.0402665 -0.102774 
18.9996 3.0542 0.150602 0.213663 
19.7361 5.9806 0.0910564 0.162169 
14.8586 0.5472 -0.0138748 -0.257543 
26.9892 4.4631 0.228933 -0.112068 
18.1221 0.9628 -0.135753 -0.0651051 
18.1804 5.4941 0.160526 -0.250724 
23.5222 4.0731 0.0920301 0.0693192 
20.206 5.113 -0.296118 0.0556394 
14.0538 1.0216 0.0113577 0.0685362 
23.9149 3.367 0.0790008 0.217839 
14.2444 1.1575 0.152512 -0.0344291 
19.2568 2.7959 -0.204863 -0.0610795 
14.2926 4.7048 0.141981 0.151062 
15.8657 1.1692 0.0483055 0.288856 
26.2558 3.3177 0.073022 0.0979821 
14.4635 5.9374 0.146802 0.154071 
16.1948 1.5318 0.0750639 -0.264595 
16.2841 6.242 -0.100427 -0.111871 
19.2956 1.4657 0.126884 -0.233764 
15.9235 0.8968 0.00308068 -0.364093 
14.5476 2.5062 0.110743 -0.229529 
21.2005 3.0483 0.070687 -0.114405 
14.6124 6.3329 0.316273 -0.0799918 
15.634 4.0915 0.0400919 -0.11802 
22.2277 3.0128 -0.041631 0.292603 
27.472 4.2244 -0.0382221 -0.247728 
20.0724 3.6616 0.035142 0.0331175 
27.3539 3.7056 0.134698 -0.195144 
17.3274 6.6373 -0.0106216 0.0556308 
16.9144 2.538 -0.052637 -0.113083 
17.2965 3.0319 -0.0426167 0.0753962 
14.5507 3.7188 -0.108962 0.0620452 
17.2975 5.4452 0.132013 0.076372 
23.3373 1.4583 0.174231 -0.0635903 
18.2991 2.5837 -0.0306425 -0.0281958 
19.9348 1.6463 -0.00572667 -0.220195 
23.7901 6.0286 0.117416 0.30243 
19.6659 2.6236 -0.0381743 -0.228766 
27.2263 3.4317 -0.154006 0.0253576 
25.0833 3.5658 -0.141475 0.136955 
20.9458 5.7367 0.0948304 -0.0945601 
14.9248 3.0423 0.0081699 0.123542 
22.4589 5.237 0.0202549 0.271519 
26.1412 1.5161 0.0117014 -0.211391 
14.3987 6.2802 0.00739622 0.0430393 
19.3249 3.0476 -0.0890697 -0.162883 
23.9371 5.0986 -0.166195 0.197084 
21.4752 3.178 -0.11421 0.111465 
23.7602 4.5476 -0.0159244 -0.262113 
23.6158 1.7862 -0.0845541 -0.058891 
24.4619 5.1232 -0.154784 -0.0180588 
19.5299 6.7242 -0.0989564 0.077291 
16.5141 1.4391 -0.0472346 0.092672 
24.3217 0.5785 -0.131533 -0.0439247 
17.9171 4.6175 -0.152871 -0.215449 
21.5086 6.3634 0.0804767 0.0731729 
15.55 5.7656 -0.100151 0.0557434 
26.7755 4.4151 0.171864 -0.28836 
17.3503 1.1476 -0.0140596 0.0809436 
23.2433 5.1318 0.0427471 -0.146171 
27.6532 5.3044 0.0511404 -0.000779774 
21.9703 2.73 -0.00539813 0.131668 
25.0255 5.9492 0.0128594 0.0217433 
21.8024 5.3102 0.279818 0.281807 
27.3431 6.0934 0.10305 -0.0317055 
18.8844 2.1315 -0.0688753 0.0453959 
15.3664 1.0364 -0.0268032 -0.0667177 
15.0955 4.2721 -0.174733 0.212772 
ITEM: TIMESTEP
5000
ITEM: NUMBER OF ATOMS
392
ITEM: BOX BOUNDS pp pp pp
0.0000000000000000e+00 2.8000000000000000e+01
0.0000000000000000e+00 7.0000000000000000e+00
-1.0000000000000000e+00 1.0000000000000000e+00
ITEM: ATOMS x y vx vy 
10.3778 2.15432 -0.374422 0.642875 
7.74164 1.80037 2.67237 -1.57712 
9.18475 6.33485 1.40545 -0.0172711 
2.43723 1.14233 0.709648 -3.00717 
10.8888 5.524 1.13 -0.353154 
10.6099 2.83298 1.56453 0.429733 
11.6519 1.9964 2.64328 -1.55092 
6.92074 2.50072 -0.103299 -0.721006 
0.338815 1.05814 1.31892 2.45658 
4.67688 3.06152 0.544936 -0.0717827 
4.44778 1.05055 0.948244 -1.36495 
4.42483 1.57697 1.42549 -2.02627 
13.0981 3.55544 1.01273 0.870416 
11.0429 1.79869 0.15659 -2.30399 
13.2998 6.58231 0.990748 -1.92976 
5.91929 3.78864 -0.914071 -1.18955 
8.78799 5.46062 0.524525 -2.70319 
2.0006 5.32429 1.96426 0.830401 
3.08662 3.79451 -0.322918 0.149948 
2.75087 3.32049 1.80703 -0.625884 
1.90629 4.21629 1.2274 0.410407 
5.58011 0.940344 0.700108 2.12197 
12.6571 5.59412 3.26777 0.234035 
5.64187 6.46586 1.48583 0.536647 
13.4666 1.72195 0.302822 1.55213 
9.47255 1.05787 0.805647 -0.595857 
1.15989 3.43688 -0.0348779 -0.863537 
9.89959 3.40382 0.669025 -0.581893 
8.83312 4.46769 0.248465 0.895562 
6.92338 6.81427 0.027217 -0.906245 
2.03991 1.63537 -0.163923 -4.42823 
1.51959 6.644 -1.8404 -1.01992 
6.68971 1.99361 1.0114 -1.13812 
3.54826 6.38699 0.63111 -0.623331 
12.1222 2.2652 1.40704 -1.28359 
12.1519 6.64152 -0.997794 2.75497 
0.513146 5.14509 2.20876 1.54624 
12.4799 6.06667 1.70077 -2.10809 
11.4056 0.356807 0.223265 -0.9658 
0.935933 1.88354 0.593933 -3.91786 
3.06379 6.23618 0.258918 -1.75275 
5.47762 3.9344 0.46797 -0.840295 
6.4162 6.81576 -0.0224321 1.19788 
4.95009 0.829124 1.05137 -1.57878 
5.95903 4.72932 1.90957 -0.555096 
4.79361 2.34808 0.478361 1.82403 
5.03063 5.44665 2.6402 2.0491 
9.00956 0.217289 0.0698804 1.65769 
3.26145 2.94474 -1.09357 1.11282 
5.3399 4.63623 1.47065 0.799922 
8.0492 5.88585 2.01758 2.16757 
6.07185 0.875083 0.952549 3.21521 
10.3214 4.79694 1.42999 -2.27717 
3.99467 4.4378 0.00759145 1.19813 
1.63005 1.07978 0.35528 -3.34437 
6.87731 1.35143 -1.06258 1.33344 
9.30569 5.92788 1.82073 -1.40537 
13.7577 4.14136 0.614289 -0.304904 
10.4929 5.61398 0.0502041 -0.0888995 
9.13918 4.76665 0.909185 1.54732 
1.55629 5.87403 -1.15633 1.29836 
10.2775 6.14147 0.750694 -0.550443 
7.24895 3.68369 0.289095 1.22046 
2.58311 6.46199 -0.721316 -2.57862 
9.83108 2.07211 -0.773258 -1.77269 
13.6453 5.58577 -0.876492 -0.085718 
8.75156 3.25389 -0.288713 -0.876807 
7.22346 5.14731 -0.150251 1.30469 
5.55179 3.26821 1.5968 -1.75791 
8.27872 0.653178 1.36409 -0.810901 
11.5831 0.991959 0.54024 -0.188803 
7.27059 2.1496 1.26514 -2.33214 
3.66746 1.33681 -0.809458 0.887499 
3.30753 5.79665 -0.76852 1.59133 
7.90881 0.181982 0.0055875 1.21048 
13.7508 2.45139 0.135566 -0.39265 
6.7316 4.16836 0.192865 -0.00353379 
4.04735 6.68136 -0.0557846 0.805127 
3.36516 4.40671 0.272669 0.610746 
12.2929 4.4432 0.385085 1.95081 
2.04738 2.54285 0.360439 -0.370213 
4.32058 4.93043 -0.918929 1.2221 
4.46737 0.425347 0.827972 1.87583 
0.129345 6.17044 0.201621 -1.4747 
6.92585 3.2776 1.24013 -1.26627 
12.7289 1.25559 0.373644 -2.68378 
7.84523 3.96361 1.19253 2.159 
9.30587 1.77533 1.20085 -1.39073 
2.02651 6.54818 2.94597 -1.9185 
1.30539 3.93278 0.562485 -0.0989454 
0.939789 6.39892 -0.0450184 -4.86606 
0.692304 4.63723 0.605269 -0.61219 
6.1831 6.11773 1.11388 -0.423586 
10.33 0.657488 0.73238 -0.981426 
9.84009 4.04876 -1.53468 -0.459191 
3.77149 2.11769 -0.142419 -2.2548 
6.41247 5.0697 2.37056 2.58107 
7.03005 0.482535 1.819 -0.331873 
8.76648 0.612214 -0.316623 2.41511 
4.75514 4.67044 -0.464706 1.08713 
9.78732 6.40332 2.13265 2.52756 
5.53995 1.91435 -1.15808 0.505786 
6.12456 1.45304 2.1387 -2.61383 
9.75743 0.389109 0.436167 -2.14332 
10.8045 1.12587 0.651519 -0.155095 
11.2388 2.35841 -0.240226 1.49881 
13.112 5.08689 0.0482537 0.874815 
2.58508 4.18313 -1.96056 2.75817 
5.57201 5.10134 -0.330907 2.17623 
7.67745 3.18563 0.728275 0.362469 
7.47235 6.33707 -1.64796 -2.35349 
13.3542 2.76441 -0.9433 0.787887 
2.72953 1.70585 -0.13057 -0.449398 
5.23056 5.92434 2.45214 1.38471 
9.28862 3.4537 1.79813 -1.58666 
8.57557 6.6842 3.16537 2.75782 
5.82843 5.61477 0.935978 3.18823 
11.2666 4.37268 2.64142 2.06039 
1.02895 0.40126 0.042155 2.6437 
6.84846 6.14951 -0.135102 -3.59822 
11.9582 0.320509 -2.50099 -2.02961 
4.31765 6.2794 -0.326962 -0.124885 
3.99184 0.973787 0.38385 -1.4611 
3.30871 0.27109 0.332978 0.8948 
4.02941 5.76572 1.48399 0.217769 
6.8191 5.60231 1.30338 1.14051 
0.415678 6.5133 2.25364 1.15737 
11.9526 3.55546 -1.12732 -1.74339 
4.31626 3.51677 -0.893011 -0.829492 
8.24313 3.43211 1.70486 1.39931 
5.13262 3.53372 0.826726 0.445729 
1.45959 0.689709 0.343681 -3.3598 
12.9562 0.231688 -0.279625 1.25499 
3.08057 0.685191 -1.39989 3.47084 
1.48848 2.1266 0.684415 -2.92413 
10.0903 1.48897 1.20848 -0.738955 
9.83605 5.31202 -0.198795 -2.78406 
4.52112 5.76062 1.72129 0.135438 
10.9014 4.0206 0.283074 -0.643065 
6.19457 3.12612 0.141978 -1.58252 
11.4896 3.85058 1.93185 0.243932 
3.62107 3.86289 2.546 0.403582 
2.36919 2.21857 -0.360506 -0.0899125 
8.49715 5.94197 -0.263081 0.0713863 
0.553431 2.8903 -0.209345 -1.37445 
7.66491 5.50938 -0.596391 -0.177669 
6.12792 0.590543 1.48981 0.429124 
8.54629 3.76498 1.84007 1.55948 
4.06973 2.64404 2.02851 2.13914 
2.45402 0.650924 0.483191 -0.128535 
13.103 4.40023 -0.739481 -0.902769 
4.3851 4.08967 1.88872 -0.277742 
12.0458 4.92336 0.0580599 -0.242217 
11.7819 5.52972 1.36445 -2.70984 
12.5634 0.445511 -0.16182 0.930653 
2.16131 3.61883 0.927525 1.03714 
7.9375 2.48503 0.998186 0.636075 
3.24992 1.89759 -1.88198 -1.45518 
3.64637 5.41471 1.46548 -1.27421 
5.58844 2.5715 2.2354 -2.04701 
2.58114 5.09917 0.181829 -3.65095 
11.7715 4.38243 2.61237 -0.874662 
3.39138 6.75252 0.424274 -0.183052 
5.14314 6.74213 0.234455 0.761827 
7.32863 0.828914 1.91459 -0.753293 
10.9494 5.94456 0.891377 -1.68232 
10.3365 3.77402 1.37052 -0.126158 
11.2032 5.16465 1.17892 0.206007 
6.66758 0.668893 -0.29389 0.787908 
13.6768 1.36279 1.60866 -0.665381 
1.28507 2.9294 -0.467443 0.818492 
3.4646 0.958534 0.287143 2.90598 
1.91592 2.99531 -0.0294429 0.19125 
4.79221 6.38538 0.380398 0.965345 
12.9847 0.908985 -1.99879 0.659667 
2.58373 5.85482 -0.0623379 1.14225 
11.9069 3.0761 0.740958 1.18918 
11.4008 6.35224 -0.762854 -1.23714 
8.51604 1.5525 -0.065077 0.315863 
1.70597 3.54998 -0.854836 0.756256 
12.8594 2.15339 0.796946 -1.16267 
7.89895 1.19401 1.44167 -0.551273 
1.2583 5.13603 -0.336781 0.561577 
5.12605 1.39964 1.76119 1.44863 
9.20512 2.65591 2.58484 0.563766 
11.2327 3.06294 -1.06056 0.0274749 
7.85802 6.72231 -0.19935 -1.53878 
8.58245 2.44939 0.708502 -0.656706 
8.59458 4.95587 1.46854 0.0215877 
1.27791 1.47389 1.86341 0.437725 
8.11112 6.36732 -0.902238 -0.455629 
5.01152 1.84116 -0.184999 -0.187205 
0.124662 4.29154 2.19857 0.0247375 
13.1629 6.13135 0.177918 -1.35443 
5.07447 0.136307 -0.0197597 2.40158 
0.41781 0.644268 2.19712 -2.14404 
13.7632 0.910362 1.15944 0.29717 
13.6451 4.96604 0.43088 1.94805 
13.9998 0.405985 -0.68175 -2.35921 
27.277 5.01926 1.38828 -1.37227 
18.2707 2.57624 0.142407 -0.78348 
17.8705 4.28504 1.50159 1.55789 
20.6897 4.49258 2.08199 0.801797 
25.3872 5.74698 -0.98274 1.28085 
23.5972 6.42363 1.85824 -2.59185 
16.1218 6.33796 0.0260281 0.494224 
18.0516 6.23529 0.827646 1.37062 
26.6254 2.00661 2.82834 -0.351502 
19.713 5.33392 -1.16015 -3.67546 
22.807 2.69121 2.15732 -0.104419 
16.8189 3.10728 2.38034 1.66111 
25.3542 1.53276 0.0940081 -1.39746 
23.9448 0.596746 0.382158 -1.74123 
26.9264 0.839753 1.23254 -1.03093 
25.564 4.14624 0.939316 0.331781 
14.6395 5.39694 2.95975 0.267258 
19.1683 5.06816 -0.0677903 1.52749 
25.8696 6.73093 0.00993405 -4.0118 
25.47 0.321223 0.358556 1.50792 
25.4149 5.21041 -0.730659 -0.393304 
18.263 1.24723 0.537947 -2.76264 
21.7878 5.19409 1.19231 -0.381323 
24.4543 5.7966 1.17112 0.88492 
20.5606 0.327071 -0.0646292 2.72946 
26.5187 1.50416 1.24057 4.6348 
22.8334 5.58238 -0.429908 -0.141099 
19.0133 6.05286 0.575786 0.917261 
17.3465 0.355526 1.28233 -0.127829 
22.2657 1.5865 -0.526001 -1.0316 
25.5809 2.99908 1.16292 -0.81522 
27.9505 0.265889 -0.04389 1.8731 
26.464 4.95632 -0.119555 1.52419 
21.0861 0.337832 2.00417 -1.08954 
15.8378 3.02827 0.0791694 1.29542 
27.677 1.42526 -0.339439 -0.680999 
24.8816 4.84446 -0.733359 -2.1067 
26.8441 5.91134 1.24302 -0.676284 
21.2864 6.45786 1.29857 -2.12866 
14.6344 0.662006 -0.735209 0.0236893 
17.37 3.90275 2.67193 1.86989 
27.725 6.32797 -0.753298 -1.1698 
16.2104 0.906058 0.0942263 3.15929 
21.1573 1.05938 2.08533 -1.87345 
15.3112 2.59506 1.35967 -0.254675 
21.5704 2.43934 -0.041882 -2.49402 
14.9858 1.40074 2.44262 0.853302 
27.5662 5.83763 2.95979 3.69871 
22.9887 3.73479 0.361768 0.12842 
20.8873 5.24056 -0.710153 -3.31987 
20.316 5.93177 1.66988 0.0719526 
24.4897 6.49979 0.313417 -0.32655 
25.4426 6.40014 1.56631 -0.348423 
16.4688 4.47663 1.57567 0.408127 
20.2752 2.75806 0.671397 -0.0674975 
24.4172 0.953997 2.21336 2.33181 
15.0878 4.57677 -0.931423 3.01349 
14.567 4.41732 0.804386 0.918018 
22.4946 5.92739 0.964056 -2.46139 
19.4042 4.61758 0.579735 -0.521056 
22.6261 2.30508 0.881184 -2.85278 
26.6765 4.07498 2.05625 2.74055 
15.5109 4.05217 0.778992 -0.640025 
22.1401 4.0315 0.744746 -2.08895 
21.5889 3.8764 1.14588 0.732732 
18.0654 5.15995 0.0827507 -2.18635 
23.9162 5.75869 -1.30263 0.364848 
20.2051 6.48894 1.43517 -0.0107706 
15.8654 4.98784 1.32919 -3.03036 
19.9252 4.5408 2.10753 0.98157 
27.3302 2.46092 -0.557991 -0.396593 
20.7591 3.07347 -1.54603 -0.875668 
25.1732 3.242 0.157991 0.305646 
16.3217 4.93526 -0.510906 -1.67463 
16.7157 3.80991 2.27681 0.113276 
15.2872 5.12533 0.658512 1.53546 
22.0091 0.573145 -1.20483 0.580243 
17.074 6.17294 0.0803602 -0.492124 
18.1597 3.00596 -0.377056 1.227 
27.2916 6.40721 0.144505 -1.54515 
26.4013 1.14924 -0.374423 -0.24021 
20.5019 3.93995 -0.399058 1.10465 
25.1042 2.282 0.318319 -1.901 
16.9091 1.81655 -0.263715 -0.828823 
22.872 0.447197 -0.275412 -1.45803 
24.5119 1.57943 -1.05037 -2.60448 
23.7484 4.05543 1.54375 0.328237 
24.5904 3.48585 0.510567 1.7378 
17.7923 5.6622 -1.0369 -0.157176 
22.0818 2.23353 -0.525127 -0.481865 
19.2162 6.42538 0.444578 0.747774 
18.4999 6.65171 -0.0090314 -1.16109 
20.7103 6.25353 1.14042 -2.28482 
20.0264 1.17584 1.22771 -1.72835 
26.0586 2.58767 0.540381 -0.982413 
24.1273 2.68068 0.989297 -4.49536 
19.9266 0.256023 -1.25742 0.537326 
22.9079 4.34091 1.35986 -1.20308 
26.3697 5.62676 0.681993 0.176037 
14.3911 2.71364 0.183345 -0.975899 
23.2123 0.780585 2.05546 0.839881 
14.3505 2.13183 0.169735 -2.85807 
25.2069 0.928801 -0.710687 2.16988 
17.5337 2.26426 1.14473 0.469917 
26.7873 6.85082 0.000758065 -0.418885 
21.4863 4.47051 -1.3121 0.727067 
24.79 2.5641 0.672712 -2.21682 
19.4419 0.938381 1.17923 -0.634398 
16.7323 5.51576 -0.937337 1.05151 
23.1184 6.27925 0.0229937 -2.62963 
16.1827 3.52667 0.944934 1.565 
14.5616 3.17636 1.03817 1.14826 
21.3518 2.01379 -0.140564 -0.227121 
22.7099 1.19438 -0.525904 -2.13969 
23.3425 3.08195 1.72303 2.65126 
17.3319 4.45653 0.283018 1.67122 
27.3478 0.342017 1.31237 -1.28826 
18.3505 0.64131 -0.22697 2.23261 
17.1172 3.66561 1.09676 0.387281 
25.9964 5.3829 0.219708 -0.159973 
18.5181 4.25886 -1.89235 -0.52276 
18.8587 0.538835 -0.613093 -0.866782 
25.7399 2.19824 0.0701935 -1.38489 
25.6701 3.48541 1.25719 -1.16344 
24.8219 6.08571 1.05866 -1.05503 
20.9137 1.82353 0.505615 0.717648 
24.8967 4.01484 1.90058 1.63482 
26.1425 0.188285 -0.0203953 -0.583911 
25.6331 0.71571 0.937427 2.83318 
18.7412 3.16983 3.05612 0.465746 
19.8646 5.77584 0.0398476 0.229366 
15.0924 0.55904 0.476081 3.56168 
27.859 4.9236 0.393698 0.646768 
18.3598 0.274621 -0.191753 0.932661 
18.5923 5.79026 0.0975869 0.4017 
23.2867 5.182 0.315473 0.364761 
21.396 5.55399 1.19223 2.01994 
15.5107 2.15412 0.600898 5.52022 
24.097 3.39372 0.27663 2.68531 
14.9226 2.08213 1.27892 -0.162675 
19.2558 1.74886 0.750191 -1.79437 
22.0293 5.77667 0.994205 2.73858 
15.7214 0.637906 3.55606 0.203743 
26.2461 3.3981 1.18181 -0.242927 
14.3055 5.67737 2.23775 0.888538 
16.5105 2.44641 1.39689 0.256725 
16.3327 5.39227 -0.612842 1.17308 
19.2006 0.158793 0.0112407 0.156172 
16.7082 0.563248 0.973978 1.8 
15.1133 3.18297 0.156505 -0.0300583 
21.1173 2.66177 -0.0638683 -3.21279 
15.1305 5.70343 -0.743975 -1.36251 
15.9737 4.30154 1.56748 2.20875 
22.4829 3.25451 1.41476 -0.241617 
18.5764 1.96203 0.558593 0.248769 
19.9195 3.70985 -2.44632 0.235027 
27.4998 4.11505 -1.48736 -0.979 
17.6654 6.53778 0.401859 -0.601966 
17.202 2.76756 -0.511974 0.737141 
17.5692 3.14967 2.30722 -0.706101 
14.8478 3.83979 0.133303 0.351225 
16.9063 4.68652 -0.445864 0.194073 
23.8594 0.994296 0.035555 -0.133374 
18.0197 3.64495 1.1955 -1.56754 
20.183 0.686318 0.675828 3.65426 
24.1139 6.19727 1.5367 0.634279 
20.0838 1.73958 1.25778 -2.29713 
26.9041 3.42755 0.512717 0.521741 
25.4584 4.68294 1.22091 2.04345 
20.9873 5.68383 0.455174 2.28763 
15.471 3.46696 1.49343 1.06619 
22.2517 5.20091 1.04961 1.21959 
26.2645 0.546842 -0.483662 -1.95421 
14.2404 6.34777 0.322558 -2.4589 
19.4407 2.67026 -0.487157 0.266225 
24.0258 5.05894 -0.372553 1.65054 
21.8478 2.90999 1.21881 0.234921 
23.8722 4.60565 -0.577995 -0.149348 
23.8516 2.08511 0.760022 -0.396598 
24.4645 5.19988 1.24294 2.07485 
19.6644 6.53739 0.821786 0.581403 
16.9976 1.25213 1.18866 -0.957751 
24.7565 0.146231 0.00147435 1.4999 
17.3456 5.39891 1.69008 0.470886 
22.0002 6.38289 0.601366 0.540938 
15.828 5.57389 1.42204 0.959573 
26.8821 5.52562 1.2312 -0.514272 
17.7225 0.819515 1.04842 -0.675189 
23.341 5.5141 0.386044 0.765629 
27.9785 6.82761 -0.00578423 1.3287 
27.3208 3.06536 -1.94383 -0.633862 
27.7617 2.61275 0.43665 -0.0356489 
14.1022 3.43358 0.551464 -0.8307 
ITEM: TIMESTEP
10000
ITEM: NUMBER OF ATOMS
392
ITEM: BOX BOUNDS pp pp pp
0.0000000000000000e+00 2.8000000000000000e+01
0.0000000000000000e+00 7.0000000000000000e+00
-1.0000000000000000e+00 1.0000000000000000e+00
ITEM: ATOMS x y vx vy 
10.7103 2.24032 2.0444 -0.870258 
8.37789 2.07662 1.19022 1.80507 
9.65666 6.70193 0.580825 -0.27991 
2.66911 1.12938 1.39825 1.09866 
10.956 4.83377 0.731419 -1.59696 
11.017 2.84889 1.41685 0.129577 
11.8945 1.70219 -0.120756 -1.03619 
7.44115 2.75127 2.44348 0.752158 
0.711043 1.81521 0.371739 -0.419285 
5.16993 3.50085 1.97178 2.60112 
4.44461 0.891447 -0.975767 1.3124 
4.71891 1.81603 1.14552 0.908933 
13.6912 3.64215 1.15332 -0.627483 
11.3021 1.60646 -0.555823 1.48009 
13.9632 6.4933 0.637198 0.279524 
6.57574 3.28123 1.28004 -0.653585 
9.15906 5.58527 1.07107 -0.185686 
2.28246 5.03357 1.71166 0.567626 
3.41637 4.10031 1.27038 0.0535174 
3.01378 2.73647 1.1826 -2.72198 
2.05798 4.63585 0.984912 -0.733867 
6.24962 1.64185 0.563796 0.786375 
13.0984 5.45358 1.94473 -0.580356 
6.29924 6.70048 1.82254 -0.266577 
13.4731 2.45626 0.165751 1.16911 
10.0655 1.24417 1.27011 0.7664 
0.811992 3.46078 0.772527 -1.57295 
10.2168 3.01146 -0.30659 -0.619372 
9.31638 4.4371 0.276277 -1.33025 
7.27426 6.40514 1.0896 -1.41152 
2.14488 1.22652 -0.648873 1.37622 
1.43331 6.39814 0.421894 0.494133 
7.41044 2.17866 0.884571 2.00678 
3.89663 5.72925 1.09858 0.302399 
12.7826 2.25593 1.26702 0.565238 
12.3263 6.47491 0.949118 2.57892 
0.539712 4.59521 -0.0720558 -1.47512 
12.8746 5.87427 0.96858 1.25897 
11.244 0.262079 0.277484 1.32597 
1.33777 1.82447 1.42599 0.898483 
3.33573 6.14112 0.743453 1.26614 
5.72646 4.3955 1.20063 0.842908 
6.80133 6.71634 0.574781 -0.371177 
5.30734 1.08976 0.731808 -0.0213525 
6.37014 4.0208 -0.286431 -2.21309 
5.42059 2.66544 1.58469 -0.171521 
5.55476 5.74796 0.788877 -1.15731 
9.54848 0.774443 1.84777 0.75427 
3.58804 2.60728 -0.516342 -0.977065 
5.92885 4.96212 1.04891 1.72327 
8.4899 5.57548 0.94361 1.37016 
6.07496 1.19873 -0.219404 1.82595 