ITEM: TIMESTEP
0
ITEM: NUMBER OF ATOMS
588
ITEM: BOX BOUNDS pp pp pp
0.0000000000000000e+00 2.8000000000000000e+01
0.0000000000000000e+00 7.0000000000000000e+00
-1.0000000000000000e+00 1.0000000000000000e+00
ITEM: ATOMS x y vx vy 
2.8395 2.9838 -0.106442 -0.196681 
5.2306 6.0274 -0.137048 0.00309688 
10.5694 3.0473 0.103748 0.0995818 
1.1868 4.9586 -0.0829599 -0.246896 
7.7779 2.2455 0.0802374 0.00544073 
6.8608 4.891 0.0837355 0.0222765 
5.2267 1.1878 0.0835956 -0.0875632 
10.2776 2.4585 0.00220948 0.0808697 
13.8208 3.1584 -0.247648 0.213742 
1.9873 2.3625 0.0442655 -0.135551 
7.8798 4.1301 -0.0928046 0.0359737 
6.4516 4.4185 0.022322 -0.222015 
10.2171 1.6639 -0.0147114 0.365185 
4.8115 2.1054 0.0118316 0.158692 
4.3329 6.037 -0.0467778 -0.0399668 
6.8576 2.7918 0.114889 -0.0741787 
8.1257 3.8333 0.12243 0.0936346 
1.7447 2.0189 -0.420715 -0.000135495 
7.3073 2.1572 0.228023 0.076274 
8.4376 1.6513 -0.0902787 0.28284 
12.4259 4.1489 -0.0947475 -0.0254344 
3.3638 4.8991 0.132874 -0.0315094 
9.2308 3.1633 -0.238039 0.0753392 
11.7805 3.5313 -0.0358038 0.15413 
3.4134 0.7123 0.0364966 -0.0659439 
2.3533 2.5254 0.234855 -0.152913 
10.859 1.1401 -0.0747124 0.213265 
6.6498 2.367 -0.20295 -0.014622 
6.9981 4.1474 0.197522 -0.0431252 
2.2859 5.7333 0.0594709 0.0774351 
5.2888 6.6433 0.0778504 -0.364493 
8.4049 3.0335 0.200415 -0.0964203 
1.825 4.5254 0.200708 -0.13724 
10.074 2.6203 0.263971 0.0419533 
5.3617 5.8558 -0.192314 0.180723 
11.764 5.9766 0.0944216 -0.191022 
0.5738 4.6081 -0.212565 -0.254478 
6.0023 6.5621 -0.107497 0.00451308 
10.2973 1.3291 0.346526 -0.000179974 
7.7135 3.6168 -0.137566 -0.112221 
6.4959 1.8041 -0.0468473 0.199292 
0.6611 2.125 -0.0931078 -0.0670071 
4.1225 5.2847 0.0230074 0.068007 
10.3436 1.823 -0.167609 -0.187067 
13.7182 1.3853 -0.0668108 -0.0607283 
4.1546 6.3071 0.0869954 0.0199806 
5.3756 2.1793 0.246074 -0.178915 
4.0157 3.78 0.32878 -0.173207 
13.6628 2.0548 -0.0951366 0.231562 
13.1442 5.4504 -0.170178 -0.031243 
9.9197 6.7597 0.0890764 0.0450377 
12.6799 1.3307 -0.0448638 0.171764 
1.3502 1.9008 -0.0133314 0.0622827 
6.1523 6.1085 -0.103897 -0.00621949 
13.3807 1.6384 -0.00588729 -0.0477319 
8.1584 5.8805 0.102978 -0.0401747 
6.8059 1.3662 -0.0125093 -0.17128 
6.3962 2.5586 -0.16966 0.0718806 
10.0488 4.0039 0.156721 0.0585077 
7.0284 2.1706 -0.0183062 -0.264177 
3.0819 1.8501 -0.285366 0.00605942 
4.1126 1.5049 0.0334685 -0.0516356 
6.6675 6.264 -0.124665 0.107128 
6.5311 6.504 -0.0625291 -0.0339591 
10.2672 5.711 0.0187819 0.119799 
2.6531 1.9717 0.16441 0.132912 
1.2831 2.4269 0.00487911 -0.106196 
10.7501 5.2903 0.133532 0.265279 
13.3003 2.8672 -0.129676 0.145767 
7.3847 2.6326 0.177152 -0.192964 
11.1526 6.0334 0.00471116 -0.148792 
8.1845 5.171 0.109819 -0.0275061 
5.0504 2.8204 -0.236058 0.00544833 
12.0905 0.7646 -0.044296 0.160001 
9.8522 5.6476 0.0280561 0.0166089 
2.5131 6.219 0.150353 0.00516937 
1.3551 6.4322 -0.0163032 -0.219886 
12.3151 0.9373 -0.142158 -0.0812659 
3.2123 5.9542 -0.165893 -0.0947182 
8.1751 1.2239 0.344349 0.0168197 
9.3927 4.0651 0.00986444 0.0671252 
4.7805 2.9859 -0.209277 0.113612 
6.7634 0.677 0.00445083 0.0672572 
7.4962 4.8574 -0.216837 0.197253 
12.3895 6.4103 0.148808 -0.027555 
5.9567 5.2157 -0.191391 0.228158 
11.4033 1.094 -0.0912326 0.0640581 
10.8547 5.5844 0.0564249 -0.086146 
1.0228 1.1533 -0.000890107 0.0708778 
1.7944 6.6822 -0.0515089 0.198129 
9.5792 4.8746 -0.2659 -0.048231 
6.1595 3.7375 -0.187207 0.0962294 
6.1238 0.5516 -0.0109341 0.234935 
10.0053 5.4163 -0.123646 0.0275454 
1.7316 1.6731 0.126182 0.229462 
7.6524 3.2405 -0.0597554 -0.0082081 
4.2291 6.6975 0.207664 0.123384 
7.3451 6.163 -0.0108337 -0.292938 
4.735 1.8138 -0.173728 -0.135689 
8.2749 6.5552 -0.0577448 0.0118452 
6.5977 0.8591 -0.0483121 -0.185719 
11.5637 5.2806 0.168757 0.063925 
6.6378 4.663 -0.117782 0.006122 
9.0442 3.8325 0.105601 0.107347 
0.7319 4.4451 -0.178512 -0.230682 
0.6694 2.8765 0.0258236 0.0529433 
9.7191 6.5655 0.176287 0.141424 
5.7885 3.3903 0.161288 0.0698512 
1.6269 6.4306 0.143904 -0.296208 
6.4026 5.8055 -0.0295771 -0.210499 
11.1776 3.639 -0.0239775 0.172044 
9.3001 0.9843 0.0578667 0.0583379 
10.8886 1.4602 -0.101113 -0.00128965 
5.7178 4.241 -0.0864144 0.0469445 
9.4683 1.9743 -0.156623 -0.164468 
1.1872 4.3932 -0.112587 0.326053 
13.9835 4.8957 0.0195087 -0.275714 
5.3228 2.9708 0.0400862 0.213932 
6.5837 2.8951 0.084494 -0.0284223 
0.7104 1.7985 -0.125317 0.109526 
8.2449 6.1511 0.00669056 -0.0336023 
1.4934 4.8252 0.0497793 -0.125456 
7.3978 6.4134 -0.0840493 0.268543 
7.8893 1.4357 -0.0527813 -0.176937 
3.0267 2.0901 -0.252739 -0.259735 
10.9477 3.5834 -0.0946756 -0.056289 
9.293 6.4931 -0.268142 0.184021 
2.2219 6.3472 -0.102109 -0.430778 
2.2134 3.9392 -0.164737 -0.103262 
10.8924 6.4486 0.201337 -0.24556 
11.9965 5.7216 -0.251925 0.00230976 
6.573 1.1041 -0.268739 0.317278 
6.65 5.4497 -0.0210225 0.0992618 
8.4798 0.9131 -0.113664 0.0991291 
1.5096 1.3989 -0.163279 0.00596742 
13.2364 3.7402 0.112801 -0.0294873 
12.1402 2.8397 -0.143351 -0.00810207 
4.658 6.4427 0.275168 0.0421659 
10.4797 2.529 -0.00470867 0.155921 
1.4132 3.4813 0.100092 -0.0294891 
12.0781 4.7148 -0.227469 -0.125676 
4.6522 2.7985 0.0228944 0.132205 
6.4693 4.9466 0.0595649 0.00607052 
11.2191 4.5989 -0.0758941 -0.225216 
2.6272 4.9354 0.136475 0.0141629 
10.2896 3.1636 0.0449071 0.0419297 
10.7257 4.8492 -0.041472 0.12632 
10.4532 3.72 -0.0672987 0.0548705 
5.4664 0.6791 -0.047087 -0.156751 
13.7441 0.898 -0.0290271 0.162619 
12.0488 5.3354 -0.0383332 0.27655 
3.4087 4.6175 0.146225 -0.0402106 
4.8075 4.3613 -0.0268892 -0.0605639 
4.1054 3.099 0.153981 0.0966074 
3.9306 6.2628 0.142128 0.0247217 
1.2854 5.4462 0.14755 -0.0835145 
1.4526 5.6326 -0.132409 0.0979105 
4.5196 6.2488 0.0799236 0.117561 
10.8643 3.7853 -0.105652 -0.1693 
8.2038 4.5439 -0.00226368 -0.192609 
3.5766 3.9569 -0.165376 -0.023824 
13.3486 4.5425 0.0677294 0.0947275 
0.7893 6.4583 0.183193 -0.200074 
8.0132 3.5992 0.0920685 -0.0780089 
6.9837 3.6374 0.0794807 -0.0426539 
8.5126 2.0369 0.163038 0.104107 
7.9386 5.3899 -0.146709 0.167281 
6.4569 2.2496 -0.143874 -0.249372 
9.3751 4.7028 0.192302 0.292434 
3.0942 6.4198 -0.0416426 -0.0209221 
3.8201 4.6372 0.127851 0.000573425 
2.697 6.0361 0.0542069 -0.0581465 
4.2873 3.1933 0.0238528 -0.151235 
5.9127 4.3102 0.15431 -0.00893251 
12.9854 2.4473 0.023558 0.123946 
11.4018 1.4296 -0.0326567 -0.0568843 
9.5314 5.7117 -0.147531 -0.0590471 
5.9131 3.7262 0.0421526 -0.0954205 
3.804 3.0136 0.228664 -0.0604689 
11.2104 5.3172 -0.179792 0.0270247 
2.6224 5.6811 0.0739046 0.176702 
2.8317 5.1237 0.0990761 -0.0720531 
13.5695 6.5689 0.0570644 -0.0951966 
13.3198 2.0446 0.104869 -0.254562 
12.1996 5.9636 0.142934 0.0297081 
13.716 3.5784 -0.214365 -0.0457741 
12.9982 1.8202 0.170294 0.180744 
2.7833 3.1927 0.0822587 0.0707112 
9.7549 2.2767 0.0447357 0.00933073 
0.8661 5.3953 -0.0742517 0.115209 
10.9872 6.7742 -0.0460534 0.20607 
11.5383 2.2679 -0.260932 -0.108727 
12.4656 2.1791 -0.109404 0.112057 
9.7179 2.9101 0.0978782 -0.309957 
11.2791 5.0684 -0.0675127 -0.101157 
10.7035 2.7956 -0.00472293 0.00681564 
4.5885 3.9649 -0.0424896 0.00533257 
5.395 4.6395 0.287262 0.0119887 
8.419 2.6826 0.0694383 0.156929 
13.4283 3.2809 0.0275883 -0.0855926 
12.6737 3.5475 -0.294381 -0.000855927 
10.0342 4.647 -0.0794257 0.0498224 
2.3463 4.9088 0.18289 0.186693 
8.7627 3.8277 0.189716 -0.403651 
5.9165 2.8528 0.00189962 0.0268953 
11.3074 1.7674 0.0188086 0.139867 
8.2449 1.466 0.205098 -0.156646 
3.8331 3.4439 0.029794 0.0184263 
3.8504 5.8 -0.200635 -0.228286 
5.7129 1.2596 0.0587264 0.00150555 
13.2116 3.4439 -0.296033 0.122911 
4.2739 3.9633 0.0108921 0.0809675 
9.6325 1.1933 -0.0331063 0.0781405 
8.7935 2.5845 -0.0897397 -0.012264 
2.6966 4.6111 0.196854 -0.169466 
3.6151 2.5205 0.0440546 -0.0281977 
7.6946 2.9095 0.0580627 -0.023104 
4.4687 6.6871 -0.126081 0.329121 
7.1764 1.4501 0.056024 -0.0143845 
0.8808 4.2454 0.0627855 -0.111831 
6.982 5.7121 -0.149051 0.0278071 
1.466 0.8929 0.0626333 -0.134847 
12.9028 4.8586 0.199597 0.0200085 
4.5569 5.9493 -0.0549613 -0.0142465 
6.798 4.2531 0.18703 0.0414555 
1.8275 1.2174 0.0475302 -0.130553 
3.3226 5.2133 0.042844 -0.202326 
8.1078 2.027 0.0450312 0.0896241 
3.6786 5.3236 0.179652 -0.13716 
9.7414 4.1469 0.0865873 -0.123872 
7.732 0.7612 -0.156093 -0.0290027 
0.9304 1.7307 -0.148709 -0.0316351 
9.6996 0.8726 -0.0550178 -0.0180264 
5.5726 6.0814 -0.0839352 -0.0993759 
7.3842 6.7236 0.311398 0.0013243 
3.9225 4.9335 0.23266 0.0736785 
0.925 4.5793 0.213708 0.04631 
4.4493 4.8997 0.0590862 0.142124 
1.4339 2.813 -0.212687 0.0668186 
13.4356 6.0951 0.0982971 -0.0596175 
3.6951 1.77 -0.0643781 -0.0432186 
0.6383 4.8595 0.0189176 -0.0610226 
3.2653 2.9385 0.281662 -0.218445 
6.8304 6.796 -0.0789297 -0.00793878 
5.5185 6.6074 0.188187 -0.0236329 
4.025 5.5694 -0.0840083 -0.111281 
8.8917 6.6691 0.14522 -0.0682209 
3.6435 6.4075 0.135686 -0.155991 
7.4422 1.5928 0.174799 -0.098174 
3.8353 0.8971 0.129288 0.115018 
1.822 3.7926 0.115572 -0.209031 
12.3363 5.4426 0.0514473 0.336814 
9.5355 1.6524 -0.0841415 0.0848641 
5.3231 1.823 -0.192956 -0.192975 
8.7519 4.1959 -0.141347 -0.0347723 
6.0351 2.1767 0.245892 0.0591944 
12.3968 3.5335 0.0913398 -0.227678 
10.3097 2.7156 -0.173192 0.0869344 
11.2514 0.7237 -0.0353107 0.122159 
10.5245 5.4071 -0.0141742 -0.171864 
1.9033 4.2992 0.0451852 -0.225901 
2.5436 2.7765 -0.0383572 0.141427 
7.2459 3.1041 -0.0162426 -0.0417275 
6.2894 6.5734 0.126951 -0.0424864 
9.7237 3.1686 -0.0718414 0.262908 
10.952 1.8049 -0.183147 0.117026 
13.4151 1.8383 0.114827 -0.135524 
5.4314 1.3333 -0.219531 0.136372 
10.636 1.7481 0.0734021 0.0369271 
4.819 1.4317 -0.109676 -0.101719 
12.2441 5.1969 0.00275389 0.0264183 
3.1012 0.7488 0.247864 0.0402731 
9.1503 4.5579 -0.24329 0.00246689 
8.7614 2.077 -0.00819506 0.119656 
9.1207 5.1556 0.133457 -0.000863351 
8.5399 6.2404 0.266232 0.0704022 
1.3025 3.286 -0.167432 -0.00494927 
2.2975 3.004 -0.116459 -0.24521 
4.098 2.0438 0.0582466 -0.287084 
3.5091 2.2492 -0.260651 0.19333 
9.7812 1.8852 -0.182653 -0.0254382 
5.3667 5.6506 0.0125945 -0.0430239 
6.0905 6.3377 -0.133906 0.14038 
4.0149 2.4249 0.0206057 -0.0336997 
8.2368 4.9077 0.0702855 -0.0269686 
7.0127 0.7236 -0.167686 -0.119405 
9.0836 4.7947 0.0145846 -0.32773 
12.333 3.1543 0.0423958 0.115175 
3.7403 6.7423 0.0138546 -0.172103 
3.6839 1.1673 0.139796 0.129905 
12.7589 5.0828 -0.344325 0.149797 
10.5522 6.5251 -0.0942654 -0.132106 
2.0291 4.6699 -0.0248325 -0.00907026 
1.6422 4.2081 0.12384 0.0512248 
8.9031 2.8891 0.0849735 -0.0832613 
10.4423 5.1369 0.190107 0.149768 
12.5204 1.5477 -0.0551788 -0.0571438 
10.9856 2.5417 -0.174645 -0.0546787 
3.7077 5.0072 0.0782355 -0.0995148 
2.9442 6.7718 -0.146888 0.052293 
3.5207 1.3043 0.0550875 -0.0893962 
12.8901 6.5341 -0.0817153 0.166052 
4.8747 4.6822 -0.16954 0.106157 
12.055 1.9104 -0.0997032 0.0293262 
3.5 1.8266 0.209606 0.209997 
18.9983 2.8341 0.152934 0.0332431 
15.6304 5.9819 -0.163772 -0.0479698 
24.7626 1.8876 0.162982 -0.0548903 
27.7737 2.8281 -0.131379 0.149011 
21.9843 2.3321 0.0538599 -0.0359747 
27.1408 0.8626 -0.0738386 -0.0982007 
26.6952 6.2843 0.109697 -0.0750106 
26.8241 1.1837 0.271913 -0.051179 
27.1046 2.3031 0.0838106 0.0144125 
14.2986 1.7096 -0.0621971 0.0835934 
25.3577 4.7085 -0.333523 -0.0391238 
15.2056 1.0848 0.0359115 -0.073625 
22.2159 5.0748 0.0718489 0.0392516 
25.0609 0.767 0.106235 -0.200971 
16.2435 4.2381 0.0167572 0.166871 
25.384 1.1708 -0.0452456 -0.117785 
26.3707 2.102 0.0805299 0.184816 
20.8314 5.8123 0.0503191 0.0229233 
18.9567 1.2953 -0.00785496 -0.034621 
25.1945 6.467 0.228077 0.0593815 
25.0432 4.9542 -0.236723 -0.0602606 
23.8151 4.0354 -0.255445 -0.0168056 
22.8304 5.8794 -0.0392698 -0.278414 
24.6495 0.9063 0.0237341 0.128733 
16.7883 3.7509 -0.153088 -0.107872 
18.2648 3.6665 -0.149918 0.0516957 
16.6085 2.3549 -0.0339418 0.131476 
20.5448 4.8331 -0.176686 -0.0587058 
17.5006 4.4671 -0.161646 0.215793 
14.3768 0.8767 0.241757 0.143731 
16.2986 5.8449 -0.138632 -0.0735263 
19.9468 1.7312 0.0214663 0.206455 
24.9166 3.3381 -0.232024 -0.14661 
23.3575 4.6257 0.101608 0.0449037 
26.1733 4.763 -0.107786 -0.0260657 
18.6788 4.897 0.0675858 -0.0689802 
15.3618 4.1057 0.0154636 -0.0338843 
27.6251 6.7946 0.0895843 -0.233965 
21.067 6.7045 0.104891 -0.0766408 
27.6744 2.4533 -0.254129 0.0723318 
27.4525 3.4275 0.0367604 -0.068048 
15.3057 4.7119 -0.190782 0.0311164 
19.068 1.6005 0.00611212 0.0854928 
23.9118 4.4051 -0.00735274 0.085646 
23.7481 5.4713 0.282969 -0.0821401 
26.7175 3.2293 0.187601 0.107356 
21.4208 1.0869 0.243103 -0.0258755 
24.7606 4.8104 -0.120328 0.128244 
17.5228 6.759 -0.230076 -0.00591099 
16.1063 1.7116 0.0504875 0.231938 
27.2139 3.4278 -0.139555 0.0738126 
26.5021 6.7788 -0.210882 -0.026014 
18.6347 4.2172 0.137273 -0.286147 
27.3391 0.8987 0.0211386 -0.00775695 
15.7121 1.5018 -0.0958412 0.185167 
17.1412 2.9902 -0.0527739 -0.0868085 
17.2879 3.2565 -0.0291196 -0.0203239 
16.9955 6.0869 -0.277921 -0.0195631 
24.8487 6.384 -0.0523371 0.164245 
15.3632 3.1858 -0.0797709 0.0734917 
20.0378 6.4439 -0.00425072 0.09499 
18.8728 0.7351 -0.0276413 0.0285067 
26.1056 2.6536 0.0371943 0.0592599 
24.2914 1.6444 -0.176204 -0.0881085 
23.55 3.239 -0.268488 0.0832334 
19.037 6.2791 -0.125425 -0.1145 
23.2198 2.1329 -0.124969 0.225406 
15.7418 2.4646 -0.031324 0.135121 
23.6146 2.4841 0.0127359 0.156431 
24.7558 2.0878 -0.498693 0.132721 
14.6922 3.6555 -0.20771 0.107477 
21.3953 4.6866 -0.113136 -0.233874 
23.3261 4.0039 0.0206858 -0.0965686 
24.9832 1.4155 -0.104737 0.0467839 
23.8005 6.7166 -0.0963225 0.316334 
21.7172 2.7789 -0.0118708 0.108868 
15.3781 5.0637 0.0148002 0.104406 
14.585 2.8095 -0.0119215 0.0236222 
22.5732 1.605 -0.0547442 -0.0513177 
22.9766 5.7058 0.13638 -0.164917 
20.5033 0.6785 0.105063 0.0933964 
24.6489 4.607 0.263823 -0.012313 
17.3375 5.4096 0.033225 -0.161659 
21.759 6.1782 0.166936 0.0652414 
23.6716 5.0571 0.0763865 0.0713666 
17.4137 6.2276 -0.13038 0.0893587 
20.2017 5.6438 0.107529 -0.0888288 
26.8618 4.9718 0.247943 0.111941 
15.6071 1.8041 0.0292761 0.0320822 
17.5346 5.6752 0.0520596 -0.0588318 
19.1268 4.9326 -0.151679 -0.00935504 
15.4982 2.9434 -0.0444151 0.0840573 
17.9295 6.1697 0.0874442 -0.0263632 
26.5019 1.4891 0.356537 -0.0217138 
22.3362 0.5437 -0.41851 -0.258703 
22.7819 2.5064 -0.180733 -0.145952 
25.9175 1.8917 -0.184585 0.128896 
21.7443 6.5065 -0.0760556 0.120369 
21.1413 1.2267 0.172183 0.049346 
20.2107 2.8201 0.18168 0.0490718 
23.7068 4.375 -0.0639529 -0.170662 
21.2095 1.6684 -0.0487828 -0.23251 
16.1651 2.9778 0.14446 0.0459223 
21.4183 3.781 -0.0915417 0.314437 
16.8319 5.1317 -0.00104793 -0.311011 
21.5912 3.3979 -0.0870664 -0.0143796 
15.1734 6.2055 0.0485069 0.376029 
26.9 6.1534 -0.110972 -0.0827357 
23.0478 0.71 0.0522801 -0.0545126 
25.8716 6.3335 -0.0408153 -0.00270825 
20.782 2.1713 0.192108 -0.0364902 
22.101 5.5892 -0.0129655 -0.0513907 
24.3896 1.855 0.0585588 -0.16749 
21.5908 0.5184 -0.0360961 -0.0541137 
25.5864 2.2082 0.226132 0.127212 
25.4022 2.6381 -0.109951 0.0169045 
24.6082 3.0168 -0.0720958 -0.0538235 
17.6651 3.6768 -0.0903255 0.0820254 
15.035 0.8479 0.0270986 0.0722348 
17.7364 5.2941 0.0431761 0.0148498 
26.3222 3.9347 0.0983903 0.0803873 
19.2514 5.1588 0.267605 0.199592 
14.2444 4.5393 -0.0314757 0.0768447 
22.2252 2.8632 0.202016 -0.0960559 
17.9454 2.9049 0.252774 0.322879 
27.1309 5.4529 0.00278982 0.0633483 
24.4635 3.5342 0.0408338 0.0189726 
23.1407 1.7187 -0.112788 0.0871868 
18.6288 3.7062 0.13627 -0.152701 
23.9653 5.4596 0.0244328 -0.0867572 
16.7138 1.6533 -0.031238 0.0761315 
25.509 5.6307 0.0292641 0.0597162 
20.1961 4.4752 -0.196811 0.107794 
21.7487 4.9179 0.00354981 0.0793955 
23.5063 6.7856 -0.00271665 -0.182213 
26.8321 0.8549 0.201078 0.147479 
17.4085 4.9137 0.0190528 -0.13144 
16.1828 1.2747 -0.00494487 -0.0898482 
15.5442 2.2905 -0.0890971 -0.0367919 
18.2015 5.525 0.00892596 0.175374 
21.4071 6.3531 0.00817192 0.214334 
22.4969 0.6663 0.0708212 -0.00973631 
15.1965 3.8271 -0.13214 -0.160443 
14.3669 5.3133 -0.00837766 0.0148207 
26.7174 4.1161 -0.0393893 0.0269805 
14.7811 5.1418 0.226207 -0.165242 
15.312 3.5863 0.00490969 -0.150394 
22.6692 3.7978 0.227706 0.121398 
22.0551 3.2591 0.056408 -0.283911 
24.208 3.5104 0.0664287 -0.286194 
17.535 2.9139 0.0948245 0.0768681 
27.598 5.0242 0.014625 -0.0552563 
26.7761 4.4078 -0.0349733 -0.13119 
18.2858 0.9561 -0.0763993 -0.175098 
19.2292 0.9993 0.0557441 -0.217297 
22.0689 4.0536 -0.0912822 0.179291 
24.6744 2.6083 -0.0332777 -0.0336279 
15.2244 2.2014 -0.0538277 0.244026 
18.4712 6.2848 0.0826984 -0.0772781 
25.5325 5.32 0.0791441 -0.0268177 
20.1342 3.5845 0.00553347 0.269238 
23.3679 0.5489 0.0632664 -0.0750152 
23.026 6.5446 0.011169 -0.101412 
25.3904 3.4283 0.0171116 0.0652782 
26.8778 2.7435 0.073595 -0.0433814 
14.8764 5.5056 -0.0428203 0.249712 
19.575 3.699 -0.166399 -0.302295 
18.2429 5.8163 -0.308631 -0.165675 
19.451 1.4935 -0.0881348 -0.0201345 
26.6035 3.6194 0.0856375 -0.0214308 
16.1684 2.5965 0.0778393 0.0205293 
21.0754 6.4064 -0.130299 0.215261 
26.1149 0.5806 0.205748 0.0507341 
14.2404 2.7 0.0879152 -0.0490811 
20.948 2.5181 -0.119045 0.127655 
15.8939 1.0948 0.0124345 -0.0278862 
21.332 5.6655 -0.17849 -0.0362999 
15.276 2.4737 0.00367466 -0.0512286 
20.274 5.2777 0.161428 -0.0321794 
18.7286 3.3433 0.0358608 0.0823125 
25.4577 6.7787 0.15853 -0.0398178 
20.2296 0.7836 -0.121479 0.233022 
14.7599 1.5593 -0.0106277 0.0614786 
23.3757 6.4372 0.15544 0.0881297 
23.3776 3.5886 0.192909 -0.029545 
25.9492 4.9448 0.184021 -0.216636 
23.4495 2.819 -0.0860061 -0.048206 
26.2878 3.4863 -0.0864973 -0.159297 
19.6168 1.3659 0.361644 -0.0951846 
24.7693 5.7119 0.00175018 -0.124952 
21.0659 4.3683 -0.0237348 0.0253164 
24.1732 5.8573 0.323059 0.061734 
18.8428 4.7312 -0.109656 0.166266 
22.1764 6.6575 0.0604823 0.145285 
23.1078 4.1628 0.290365 0.140706 
22.2499 1.2659 -0.2434 0.0721522 
15.7807 3.4917 0.210612 0.012777 
22.4839 5.9864 0.0366058 -0.167175 
25.5723 2.8766 0.121376 0.152763 
20.8206 0.7435 0.152338 0.198597 
20.596 3.6186 -0.168679 -0.102522 
25.6095 1.6053 0.168609 -0.0203762 
24.238 3.0902 0.26997 0.0124512 
24.5074 4.4501 0.242068 -0.0871852 
21.4655 4.2177 0.132674 -0.00465914 
20.6726 4.4005 -0.174304 -0.0824306 
18.4187 4.8283 -0.0837125 -0.343692 
22.0667 1.6194 -0.10456 0.169782 
19.0553 5.4791 -0.17981 -0.0252374 
14.7198 3.9036 0.11278 -0.143179 
27.5661 4.605 0.0828369 -0.0264003 
21.8001 3.6265 -0.0156581 -0.0923122 
22.428 2.3985 0.195658 -0.192933 
20.2779 4.1173 -0.268722 0.244894 
26.7722 2.2108 -0.0439804 0.0901716 
17.7327 4.2902 0.0396492 0.0731595 
16.4969 5.5946 0.272017 -0.00741598 
23.8599 1.2855 -0.171078 -0.0907471 
19.0805 4.3898 0.230079 0.0730781 
20.4275 3.8177 0.0449523 0.167866 
20.827 3.8755 -0.215869 -0.192886 
16.6537 4.3517 0.24468 -0.0146059 
20.6519 3.3098 -0.250488 0.0597189 
22.7689 1.2455 0.0451338 -0.00965654 
15.0932 2.603 0.161821 -0.0587593 
19.5576 0.641 0.147533 0.0154266 
21.1441 0.6975 -0.197641 -0.278069 
21.4632 6.7277 -0.107672 0.121636 
17.2094 6.707 -0.0621831 0.220118 
24.0439 1.0592 -0.0788842 0.0945997 
20.1367 3.8011 0.0666109 -0.0225905 
24.3407 0.8157 0.280559 -0.0421881 
18.677 0.6041 -0.159662 -0.15538 
25.2622 2.9102 0.0555286 -0.0268646 
19.592 4.5082 -0.00590146 0.0812943 
23.8081 6.3339 -0.252742 0.122546 
26.1604 1.3009 -0.0859418 -0.229211 
22.3056 3.6839 -0.182689 -0.0213865 
24.3385 1.1915 -0.0936756 0.0968121 
15.8205 5.2684 0.027592 -0.0290813 
16.1566 5.2004 0.231463 -0.155434 
15.7086 4.1945 0.00527406 -0.0978091 
15.0756 5.5356 0.0023087 -0.0663534 
20.2133 4.9543 0.0479782 -0.124734 
24.8325 0.777 -0.306419 0.191417 
23.3714 5.9357 0.150524 -0.056659 
22.3591 1.6767 -0.0181086 0.133717 
14.2144 0.6032 0.0406201 -0.219107 
26.3321 2.418 0.240766 -0.0814603 
15.9021 1.6917 -0.341569 0.069926 
17.78 5.9024 -0.0277864 0.0287188 
23.1906 3.842 0.087882 0.0330699 
20.7557 4.9252 -0.0700382 0.0654535 
26.0601 3.9165 -0.00539389 0.187611 
18.07 2.3707 0.204053 0.0374446 
17.1305 0.5971 0.0455871 -0.111275 
22.5198 4.7326 -0.118315 -0.0843852 
19.3006 2.7378 0.142883 0.15731 
20.6064 5.9718 0.00540441 -0.112451 
18.0463 1.2028 0.00197768 0.0808815 
23.5575 1.1216 0.300691 0.133359 
15.8244 6.4564 -0.0525136 -0.219816 
22.1785 2.1831 -0.105521 -0.15487 
19.4146 1.9505 -0.028246 0.0338114 
20.7593 1.6565 -0.218031 0.367969 
20.6548 6.7711 -0.332953 0.195965 
17.8118 1.4766 0.0210434 -0.0972819 
14.0186 6.2372 0.00650205 -0.0296543 
26.5404 2.4931 0.20346 0.0494274 
18.8968 0.9605 -0.109693 -0.0975971 
15.272 1.6528 0.212678 -0.100955 
21.1882 5.1317 -0.0205736 -0.080813 
26.1361 5.9155 0.120915 0.203845 
22.2368 6.2546 -0.0508654 0.136457 
23.8191 5.9846 -0.0703797 -0.153787 
18.1526 2.0562 0.170786 0.109354 
18.9816 3.4918 0.0157829 -0.057225 
23.099 4.5515 -0.0461822 0.0321821 
26.1787 4.3235 -0.355046 0.238784 
22.3077 4.5534 0.0285081 0.0711863 
27.7697 4.7045 -0.00688035 -0.0836642 
25.9263 2.7943 -0.114896 0.0197447 
25.4606 0.6625 -0.0520809 0.0347422 
ITEM: TIMESTEP
5000
ITEM: NUMBER OF ATOMS
588
ITEM: BOX BOUNDS pp pp pp
0.0000000000000000e+00 2.8000000000000000e+01
0.0000000000000000e+00 7.0000000000000000e+00
-1.0000000000000000e+00 1.0000000000000000e+00
ITEM: ATOMS x y vx vy 
2.75495 2.76678 0.343954 -1.55653 
5.28503 5.53527 1.2815 -1.8005 
10.8661 3.40646 -0.773233 -0.32076 
0.304357 5.70063 1.83157 -3.07856 
7.57011 1.68186 1.27911 -0.543229 
6.99689 4.97614 1.88228 -0.555574 
5.06175 0.583697 1.38935 -1.26711 
10.3105 2.05258 0.0722245 -1.18588 
0.743223 0.539102 -1.566 -1.52107 
1.57606 1.48391 0.484272 -3.51401 
7.9357 4.28952 -1.0446 -0.67102 
6.70151 3.91325 1.06007 -0.11752 
10.4453 0.913067 -0.686584 -0.745787 
4.73903 1.99203 -0.360486 0.250103 
4.72559 5.56294 1.25506 -0.350641 
7.19613 2.4299 0.995688 -1.00226 
8.26737 3.8123 0.271861 -1.55117 
1.72421 0.95682 -0.259013 1.36812 
6.97759 1.62547 0.68368 -1.88654 
9.09399 1.36356 2.1036 0.563839 
13.0412 4.11287 1.3804 -0.0932207 
3.0469 4.60746 -0.623149 2.52359 
9.45758 3.68153 1.19784 0.853638 
12.3267 3.28341 -0.798953 -1.02285 
3.88955 0.21843 -0.069374 2.88386 
2.37246 1.72215 0.890914 -2.91272 
10.9354 0.5176 3.40339 -1.74935 
6.90814 2.06837 0.693091 -1.59216 
7.45279 3.98958 -0.575773 0.202949 
1.82059 5.32056 0.61831 3.19196 
5.40929 6.71611 -0.892722 1.06416 
8.65526 2.75051 1.21011 -1.38052 
1.15435 4.56294 -1.32027 0.153122 
10.0888 2.69922 0.314644 -1.86007 
5.81234 5.53471 1.16045 1.01066 
12.0366 6.49281 0.0726279 -3.59952 
0.627214 4.67383 2.00815 2.97948 
6.27991 6.66287 -0.63613 0.706574 
10.2333 0.376571 -0.945339 -2.15474 
7.8276 3.53914 0.182988 -0.436423 
5.84116 1.2201 -2.7187 -3.03503 
0.40405 2.48735 1.06965 -1.62399 
4.93491 5.12511 0.886237 -1.02897 
11.1123 2.06592 1.72033 0.0763091 
13.7957 1.05919 -0.126435 1.37256 
4.36278 6.13724 0.454662 0.749565 
5.55836 2.33967 -0.934596 -1.10538 
4.07192 3.67224 0.531614 1.16358 
3.45698 0.958124 0.00738687 -0.0669305 
13.5841 5.42442 1.33635 0.156592 
10.0864 6.76568 0.0750927 -0.607486 
13.0309 0.562228 -0.720944 1.83662 
1.02169 1.1863 -0.611971 0.673683 
6.26626 5.55955 1.05974 0.0836692 
13.5728 1.3044 0.532145 0.643691 
8.10235 5.72952 -0.145548 -0.300016 
7.02959 1.23082 0.467505 -0.555444 
6.50565 2.3637 0.686215 -0.657809 
10.2433 4.2275 1.3005 0.081597 
6.26009 1.49121 0.0631118 -2.09415 
3.05421 0.873706 -0.807016 -0.197768 
4.06648 0.68616 0.712482 -2.68047 
7.16217 5.85874 0.655653 0.581799 
7.06488 6.47753 0.342025 1.09523 
10.1802 6.27819 0.650754 2.96477 
2.24052 0.988431 1.80274 -3.07561 
0.564161 1.63934 -0.0903361 -0.577827 
11.3295 5.36842 1.90157 -1.41558 
13.6759 2.98922 2.677 2.17983 
7.52457 2.06296 1.61649 -3.32554 
11.5493 5.81863 0.792067 1.22561 
8.29077 5.2856 0.277151 -1.14913 
4.95393 2.3584 -1.79307 -2.19875 
11.9868 0.394325 -0.247606 2.14936 
9.5818 5.8602 0.430318 0.709096 
2.44777 5.99943 0.085878 -1.41486 
1.08969 6.73927 -1.86107 -0.607414 
12.651 0.365805 -0.567845 1.84058 
3.4116 5.70848 0.907338 -0.309751 
8.40598 0.435893 0.0807741 0.69634 
9.56904 4.3682 3.01566 -0.021821 
5.09748 3.12178 1.97311 -0.861489 
6.85702 0.208349 0.0173764 -0.236453 
7.64572 4.93448 1.28836 0.535145 
12.7006 6.61898 1.4602 2.37173 
6.04094 5.01963 -0.263995 0.428082 
12.3803 0.670732 0.86941 0.279532 
11.0928 5.78042 0.154008 0.937556 
1.2733 0.599804 1.11535 -0.337372 
1.58004 6.65632 2.7608 -2.12893 
9.81739 5.34613 2.9095 -0.160528 
7.17076 3.60299 1.42517 -2.14181 
5.9596 0.295602 1.88815 0.332974 
10.0787 5.6816 2.46053 -0.738558 
2.66355 0.56319 0.132337 1.54585 
8.09356 3.02525 2.25251 -0.36777 
4.27322 6.57833 0.543687 -0.343848 
7.54488 5.71348 1.44838 0.239514 
4.58748 1.62462 -0.139365 0.76493 
8.23374 6.60291 0.390197 -0.102557 
6.42374 0.519866 1.29046 -1.08654 
12.2462 4.95914 0.138675 -0.26519 
6.75179 4.53244 0.883438 0.333121 
9.20912 4.09346 0.494055 -2.06609 
0.559182 3.81754 -0.417737 -0.15759 
0.776426 2.99507 -0.796252 -2.40322 
9.63455 6.47401 2.17338 1.0764 
6.08422 3.03914 0.510417 -2.33271 
1.49086 5.95186 -1.05688 -0.266413 
6.71669 5.67424 -0.82296 1.5934 
11.8396 3.44991 -0.835014 -1.34008 
8.93879 0.638541 0.690487 1.07436 
11.6186 1.04749 0.952943 2.57437 
5.66711 3.61058 1.93409 -1.9336 
9.87265 1.67461 1.96651 -0.878276 
0.812626 4.11865 0.371841 0.775819 
0.436051 3.30534 -0.841779 -2.95392 
5.56203 2.90623 -1.38547 -1.6244 
6.85987 2.85458 0.225993 -0.315496 
12.6129 1.62973 1.2922 0.825891 
7.9694 6.07 -0.671622 1.02967 
0.961704 4.97493 -1.54912 -2.80842 
7.47941 6.33719 -0.294439 1.39925 
8.27628 1.26654 0.0269105 -0.626535 
3.19571 2.64326 0.449707 -1.48068 
11.3408 3.72004 -0.124891 2.16072 
9.14856 6.43332 -0.406941 0.551305 
1.97425 5.93212 -0.788486 -1.84681 
2.2933 3.65378 -2.50481 -2.60523 
11.1557 6.2194 0.331188 1.56133 
12.2683 5.73437 0.543791 -2.4197 
6.58904 1.03959 2.4264 3.0579 
6.60741 4.97499 0.351139 -0.528985 
8.68379 0.136017 0.0167176 0.803226 
1.8876 0.522429 -0.34039 0.363321 
13.4068 4.46669 0.200211 0.268053 
12.0706 2.70432 -1.65029 0.0968153 
5.12427 6.30126 1.59647 0.585693 
11.1424 2.59679 0.867984 -0.962262 
1.4431 2.97934 0.997228 -1.18427 
12.4084 3.92496 1.66338 0.43456 
3.9712 2.28321 0.0936203 0.278041 
6.35803 4.53592 -1.58003 0.35182 
11.8193 4.11483 1.69084 0.293651 
2.54903 4.41543 -0.678638 0.243664 
10.373 3.35194 1.84451 -1.3931 
11.1775 4.95739 2.18444 -0.844227 
10.7914 4.11112 1.16016 -0.253654 
5.50855 0.568724 0.370232 -0.616001 
13.3858 0.174096 0.0009811 3.7643 
12.7585 5.14649 3.33609 -1.70244 
3.15738 4.07915 -0.660549 -0.780906 
5.36728 4.14756 -0.771159 -1.34773 
4.35354 2.86617 1.11324 -2.2518 
4.00173 5.83071 1.47584 -1.05167 
1.0714 5.70881 -1.68577 0.808421 
2.32329 5.3918 -0.360723 -2.67821 
4.90709 5.98155 1.94485 1.10735 
11.248 4.532 1.74875 2.42395 
8.30851 4.48163 0.125345 -0.0936063 
3.45911 3.79858 0.176725 -1.57084 
13.8323 4.8894 1.05276 1.13424 
0.0815339 6.83188 0.0446963 -0.108225 
8.56982 3.29062 1.4455 -1.73735 
7.36253 3.18569 1.90049 -2.88048 
8.75485 1.76947 1.86138 -1.34137 
7.78988 5.30409 0.700801 -0.970576 
6.19276 1.91543 -0.0138214 -1.59534 
9.43732 5.1015 -0.0836661 -2.03529 
2.95724 6.02126 -0.201627 0.60005 
4.10973 4.1036 0.390165 -1.84068 
2.87068 5.63399 -0.642539 -1.36009 
4.61764 3.42851 0.962535 1.00142 
6.29109 3.93738 0.595215 -0.0720956 
13.1045 2.88577 -1.73417 3.37665 
12.5628 1.20621 1.02053 -1.59598 
8.99918 5.9983 2.47587 0.824261 
6.20047 3.48198 0.807075 -1.28361 
3.68472 2.61865 -0.0705672 0.487868 
11.9256 5.36478 1.15491 0.68936 
2.68802 5.20095 -0.676434 -2.55027 
3.17418 5.21557 -0.271675 -2.15131 
13.7799 6.83557 0.000295058 0.586709 
13.3481 2.59723 0.592718 0.598103 
12.5597 6.01521 2.46069 -0.572122 
0.0696513 1.99482 0.435879 -2.13817 
12.9904 2.00351 2.10848 0.284018 
2.9398 3.43422 1.43259 -0.660535 
9.60479 2.34158 0.969785 -0.302515 
0.666035 6.60672 -0.81795 -0.105 
11.3447 6.76511 -0.20412 -0.191353 
12.0004 2.05611 1.11583 -2.68424 
12.516 2.39663 -0.185441 -0.213602 
9.66983 2.96235 0.962115 -1.17153 
11.7511 5.04125 0.0822636 -1.31156 
11.3277 3.1172 1.07061 -0.0306405 
5.08214 3.79505 -0.942553 -1.69028 
5.83433 4.10746 -0.0193818 -0.0952223 
8.72145 2.25954 1.79241 -1.82346 
0.0175086 3.66679 -1.35811 0.484395 
13.4227 3.69745 1.97548 1.11271 
10.794 4.68229 0.819435 1.97572 
2.20666 4.7388 0.24245 -1.1083 
8.92985 3.52546 1.41716 -1.68957 
6.05351 2.59417 0.473397 -2.62237 
12.0214 1.31976 0.0444735 -1.43626 
8.62248 0.937732 1.15443 0.620755 
3.74561 3.2641 1.1068 -1.18311 
3.85771 5.39249 1.35621 -1.7423 
5.42542 1.03658 -2.18121 0.637136 
13.7957 3.79046 2.858 1.34118 
4.62801 4.18376 0.513058 0.433789 
9.58384 0.801032 1.08423 0.683864 
9.16293 2.69967 1.47129 1.21482 
2.68493 3.94526 -0.819807 -1.77369 
3.26988 2.05155 -1.84553 -1.50322 
8.12569 2.40393 0.869567 -2.279 
4.77025 6.72859 0.78392 0.568077 
7.33101 0.952954 0.629254 -0.791642 
1.13659 3.42671 0.52255 1.14636 
7.03389 5.44381 0.759511 0.249841 
1.37037 0.217267 0.20636 3.13546 
13.1011 4.89772 0.56621 0.379872 
5.62783 5.08656 -0.302933 0.425144 
7.1255 4.32529 2.19298 -0.380178 
2.0892 0.269092 1.25477 -1.63988 
3.53751 4.99433 0.472901 -2.6296 
8.22524 1.73962 -0.283923 2.53736 
4.01137 4.90544 -0.770243 -2.82195 
10.0128 4.78478 0.149038 3.9903 
8.00884 0.399831 0.819534 0.728949 
0.426756 0.750985 -0.984698 -1.89401 
9.69283 0.326273 0.600755 0.629152 
5.65991 6.20305 0.0622389 0.802456 
7.87867 6.6953 0.158082 -0.0548604 
4.3636 4.55562 0.558743 -1.6117 
0.474573 5.44602 -0.25927 0.0438761 
4.90722 4.63448 1.61799 -0.781983 
1.24922 1.97413 -0.127259 -1.3525 
13.7431 6.23749 -0.114662 0.932719 
3.72671 1.33886 -1.01508 0.530736 
0.200304 0.286034 0.606151 2.2363 
3.25392 3.11652 0.503999 0.730886 
7.24147 6.79892 0.25807 1.04141 
5.88566 6.71442 0.229608 0.602289 
4.44751 5.11159 -0.183501 -2.63851 
8.83193 6.64547 1.0222 -0.417804 
3.51605 6.13628 0.662951 -1.1851 
7.61252 1.20179 0.308928 -1.06006 
4.45494 0.263171 0.697183 1.32868 