ITEM: TIMESTEP
0
ITEM: NUMBER OF ATOMS
1232
ITEM: BOX BOUNDS pp pp pp
0.0000000000000000e+00 2.8000000000000000e+01
0.0000000000000000e+00 2.2000000000000000e+01
-1.0000000000000000e+00 1.0000000000000000e+00
ITEM: ATOMS x y vx vy 
7.3316 17.185 0.118407 0.00733309 
10.0736 1.3742 -0.10252 -0.0321423 
12.2073 12.0836 0.126178 -0.0447833 
1.5574 20.5009 0.0270481 -0.0674717 
4.6843 13.7396 -0.082105 -0.128398 
6.5356 20.7971 -0.130336 0.0120295 
12.4128 3.2003 -0.417946 -0.108815 
3.0355 1.298 0.120777 -0.103371 
5.7365 14.1805 0.01673 0.0889511 
12.3406 20.3213 0.37668 0.219654 
5.4716 6.7101 0.107524 -0.00876952 
5.5005 4.8955 -0.12788 0.12813 
13.8531 20.9558 -0.268049 0.142481 
8.4041 9.5703 -0.0630183 -0.0883782 
13.8543 1.8511 -0.0458788 0.11955 
0.7757 13.7426 -0.10607 -0.249098 
6.3589 19.0944 -0.0171985 -0.0828217 
6.1706 3.1665 -0.0925631 -0.0914845 
0.905 11.4714 -0.121201 -0.145286 
5.0926 21.4019 -0.201664 0.0929751 
0.8397 2.3839 -0.0670534 0.19933 
2.9633 1.9465 0.103266 0.125571 
2.4221 17.9574 -0.0967224 -0.244824 
7.745 10.4992 0.0385416 0.143521 
13.4581 17.5078 -0.0895272 -0.2449 
1.7271 15.3678 -0.0705246 0.258846 
1.0273 4.2886 0.0738618 -0.162865 
6.813 7.5631 0.0454684 0.123269 
10.0713 0.7573 -0.090702 -0.0114031 
10.2895 0.5476 -0.0669809 0.231259 
11.6106 11.0044 -0.202517 0.166739 
11.4391 13.1147 0.121332 0.105806 
12.3267 4.8046 -0.0656195 0.136957 
1.4353 1.5595 -0.0426862 0.0156021 
8.5975 7.1512 0.0438911 0.027322 
9.5262 15.4942 -0.1933 0.247785 
10.8381 14.7318 0.25326 -0.128877 
12.1136 15.4923 -0.0582117 -0.234589 
1.0671 0.8013 -0.253917 -0.246148 
13.6578 11.9841 -0.0814185 0.033178 
8.8159 13.8403 0.231034 0.0349265 
13.3919 15.5282 -0.163858 -0.179261 
8.2958 17.4609 0.00033947 0.0666134 
2.9775 12.6646 -0.0238334 -0.230772 
8.2058 19.184 -0.35106 -0.1711 
11.9079 9.0698 -0.0237528 -0.0242112 
12.2746 5.7965 -0.101179 -0.194914 
7.0292 20.8523 -0.09457 0.0093341 
9.0026 3.0199 -0.0548686 -0.00840576 
9.2079 15.4347 0.0161529 0.0416889 
12.2398 16.2613 -0.168889 0.0326547 
12.4741 14.6961 0.240602 -0.173927 
8.183 19.806 -0.00742767 -0.0608215 
7.7325 13.9332 0.0550155 0.10354 
7.4911 3.2725 -0.0311216 -0.0570376 
8.5669 8.4895 0.407065 0.149423 
5.0796 2.402 -0.112634 0.194949 
9.7244 7.3865 0.196586 -0.2063 
10.3086 2.703 -0.172089 -0.041316 
0.7022 17.7895 0.259278 0.116136 
5.5211 21.2711 -0.0500316 0.203206 
4.1744 8.4838 -0.038198 0.0217518 
8.9166 17.205 -0.0998218 -0.10868 
4.1707 17.4774 0.165951 0.00783718 
1.1482 16.4656 0.168043 0.00559663 
7.6807 16.4734 0.0449989 -0.0584985 
5.4048 2.5881 0.0420894 0.254435 
12.3753 19.2189 -0.11331 0.00765262 
6.5185 12.4154 -0.226604 -0.0493896 
3.2143 17.6688 0.10709 -0.115187 
2.151 15.9901 -0.346818 -0.146963 
3.8195 6.116 -0.285788 -0.0144598 
11.982 20.7496 0.0165945 0.0307292 
7.7742 19.2811 -0.00632225 0.143312 
12.5522 12.3187 -0.142246 0.0797518 
12.8819 10.9248 0.133354 -0.158303 
3.8038 13.9192 0.0145915 0.242611 
10.6851 21.0351 0.197333 0.0463101 
11.9108 7.1009 0.0142856 0.0926298 
12.1432 9.0976 0.173852 -0.121182 
10.5255 14.9845 -0.0633653 0.22665 
1.8946 3.3374 0.052392 -0.0478881 
4.1931 16.8965 -0.0243688 0.0461302 
8.9382 10.4406 0.0530385 -0.100134 
11.8039 16.5625 0.0060753 0.190852 
12.4183 11.8235 -0.0274888 0.161755 
8.9656 13.0939 0.000403971 0.044561 
3.7317 17.508 -0.192273 0.0079319 
2.44 15.9246 0.173339 -0.106514 
12.9763 5.7064 0.212141 -0.189386 
13.1289 0.8053 -0.0475655 -0.190792 
9.5953 19.2592 0.0327222 -0.0723634 
2.9125 17.7746 -0.0834903 0.0567803 
8.5078 15.7277 -0.0139038 -0.0340615 
1.8043 14.456 -0.0864423 -0.0135765 
4.7693 21.7284 0.180753 -0.146122 
9.1028 16.0256 -0.0228422 0.0732973 
11.7972 3.138 -0.0779543 -0.00455642 
7.4595 19.2446 0.00917681 -0.228707 
1.7072 9.2754 -0.0962319 -0.156633 
10.2524 1.6745 -0.223811 -0.00854218 
1.3205 1.3698 0.0113877 -0.100614 
2.9287 11.2062 -0.202336 -0.0866932 
7.4784 12.6816 -0.0131132 0.153318 
8.127 6.7619 -0.274144 0.00804696 
7.4883 2.8124 0.0560211 0.129468 
12.8432 5.2836 -0.0485517 0.168763 
3.1219 6.835 0.0551685 -0.19531 
12.6282 21.0525 0.357406 0.1674 
6.9254 21.484 0.205854 -0.163615 
5.94 4.7051 0.0604631 -0.0728659 
1.0104 3.6374 0.0150358 0.0630779 
1.8566 20.326 -0.106498 0.0809867 
1.8645 18.7992 0.180145 -0.0351307 
11.5344 13.3775 -0.0842738 0.0644365 
8.5791 1.5138 -0.0669857 -0.113438 
4.3906 19.6749 -0.157799 0.0477466 
1.8072 21.5652 -0.0961618 0.107747 
11.476 15.2533 -0.089447 0.190867 
2.3869 1.3679 -0.066329 -0.0999689 
4.223 18.6645 0.113994 0.0961531 
6.9791 9.1983 0.106529 -0.0738433 
13.215 7.5306 -0.125904 0.0676883 
9.0877 1.7994 0.0866206 -0.0960103 
1.8847 14.069 -0.0625615 0.112309 
8.961 3.2693 -0.0617277 0.14199 
1.2256 2.2842 0.212087 0.0787008 
13.6309 3.6558 0.114488 0.141363 
9.4318 4.5052 0.156571 -0.209992 
6.4069 21.5179 0.200898 -0.12554 
7.5472 1.7327 0.0394628 0.278161 
7.2191 13.6683 -0.115644 0.157837 
5.7973 16.0784 0.0189393 0.0131323 
9.789 4.5517 0.0272381 -0.136681 
1.3048 2.9222 -0.0555203 0.278527 
8.555 16.8156 0.243023 0.199182 
1.0122 15.8805 0.0198247 0.0738155 
11.2716 12.6663 -0.0155613 0.0218383 
3.8612 1.1652 -0.00524242 -0.112731 
11.4163 16.9361 0.169353 -0.169479 
2.324 6.1993 0.0258314 0.167751 
7.077 20.2856 0.0780579 0.13937 
10.4197 14.4502 -0.0239918 -0.284658 
4.9044 7.5227 -0.0769749 0.195731 
2.6922 2.5299 -0.171401 -0.0880488 
11.3154 15.7364 -0.163303 0.18719 
1.4564 14.7784 0.114676 -0.159137 
13.4952 1.1258 0.0528505 -0.0281319 
8.0476 19.349 0.142285 -0.115387 
10.2261 9.2775 -0.0256814 -0.084563 
9.4806 11.7629 0.0418434 -0.181576 
3.7888 12.8741 0.0057259 0.0791679 
9.5853 3.8752 0.135986 0.0403126 
4.163 6.4851 -0.0751974 0.246283 
10.8611 9.2713 0.149659 0.215658 
12.2962 17.0473 -0.0143988 -0.25435 
12.4678 18.9915 0.227791 -0.109245 
5.2917 0.6565 0.159558 -0.247548 
13.7728 5.0978 0.0912366 0.0716808 
8.7373 15.997 -0.0385316 0.141631 
11.6551 17.7232 0.0185702 -0.105375 
6.8259 1.5931 -0.0309825 0.0275673 
12.295 6.3225 0.0107695 0.0708998 
12.0129 12.2838 0.0218133 0.0704572 
5.0069 2.8902 -0.0581064 0.175481 
12.051 8.6072 -0.222614 0.00079628 
7.2317 14.0434 0.141061 0.153215 
4.5678 19.2832 0.0476232 0.290659 
11.47 6.5046 -0.116694 0.126344 
4.4277 5.7866 0.0474811 0.138492 
5.3999 20.3788 0.145869 0.156217 
2.6052 6.2935 0.0301226 -0.00623318 
11.0943 11.3843 0.0743135 -0.261384 
8.1996 12.2694 -0.100731 -0.109048 
9.7251 4.1115 0.126002 -0.230631 
8.5265 18.3102 0.00251354 -0.360628 
3.1719 9.9103 -0.11298 0.127442 
6.3463 17.4712 -0.180529 0.135236 
1.5383 18.7999 -0.0957373 -0.0413819 
12.5801 1.6411 0.0394306 -0.115182 
1.1062 20.7611 -0.0420843 0.294396 
4.7871 16.0386 -0.0386842 -0.24456 
12.1962 5.2152 0.0344933 0.0355713 
7.9438 3.3643 0.133796 -0.192109 
1.2098 19.5418 -0.143832 -0.0890693 
5.8523 2.0699 -0.0111538 0.0580272 
2.5326 6.7224 -0.0530624 -0.110257 
12.5058 10.5003 0.131118 0.0787156 
0.7339 15.2962 0.093619 0.0471119 
7.1551 19.7855 -0.0311238 -0.0255861 
1.6279 1.8779 -0.0386365 -0.225646 
2.2196 9.8642 -0.0687083 -0.0951152 
5.6738 14.5799 -0.141674 0.139144 
5.5674 1.0498 0.0940298 -0.0917814 
11.3963 21.6349 0.00758982 0.125766 
2.5254 9.5628 0.0068181 0.0454678 
13.5596 19.4368 -0.0848983 -0.0562031 
7.849 20.6397 -0.118743 0.00766758 
5.7401 20.1281 0.073342 -0.0558843 
13.4961 5.3086 -0.158931 0.124194 
12.7804 13.0148 -0.153042 -0.212363 
4.5428 1.7815 0.0452039 -0.0155204 
10.4785 1.6035 0.0797126 0.0755247 
5.174 14.159 -0.100455 0.0581396 
11.1927 17.4102 0.0135458 0.225233 
6.0861 0.5853 -0.210065 0.167787 
13.8676 10.1058 -0.233713 -0.143462 
1.143 9.2482 -0.0145831 0.0832756 
10.9573 17.1453 0.0420791 -0.143261 
12.1093 8.3259 -0.158402 -0.0900444 
8.8853 19.3652 0.050451 0.00176022 
2.9908 16.3726 0.100435 0.105955 
6.3739 14.3868 -7.26543e-05 0.101866 
13.2076 17.7758 0.181596 0.0794756 
4.5984 13.2162 0.0122674 0.024226 
5.0345 18.52 0.187038 0.331596 
4.7972 1.1146 0.0316217 -0.321375 
0.5449 21.4351 -0.141681 -0.180914 
11.1216 14.3623 -0.0692593 0.0478184 
6.7418 14.8413 -0.0272943 -0.0640099 
5.1774 3.4878 -0.174847 0.214768 
11.1374 2.4853 0.133831 -0.12631 
10.443 20.8732 0.0262223 0.39092 
8.2073 5.5244 0.279876 0.0103659 
10.3151 6.6648 0.0190156 0.113557 
3.2345 14.949 0.0179423 0.00285103 
8.6373 8.8379 0.00180036 0.0536832 
13.9978 8.0657 0.10082 0.197321 
5.4568 9.8878 0.0120612 0.0329419 
10.0248 17.2328 -0.328015 0.169615 
10.2725 11.5114 -0.0824244 -0.118493 
1.4715 4.6834 0.0237275 0.240011 
2.2092 13.8215 0.328852 0.165171 
12.3728 21.2677 -0.0925353 -0.152998 
6.7737 12.3863 -0.0602182 -0.033308 
5.0643 20.4986 -0.257611 -0.100195 
2.2639 5.1556 0.185534 0.130355 
3.6495 5.6926 -0.0638247 0.0803509 
11.0962 8.8019 -0.0593916 -0.0142184 
10.7735 16.2784 0.0115525 -0.133782 
3.724 19.8995 -0.326572 0.0917859 
9.4908 8.2615 0.120094 -0.0621354 
9.8688 11.1785 -0.155803 0.0496852 
10.2218 12.7506 0.113574 -0.28284 
3.6514 8.7264 -0.0127312 0.264669 
5.4343 8.0176 0.193584 0.00449731 
1.1719 12.2635 -0.0101994 0.120988 
9.0913 11.4364 0.0551766 -0.159281 
8.2776 2.4183 -0.0576069 -0.154578 
9.5862 12.2919 0.0498024 -0.114346 
10.8383 10.9756 -0.220281 0.188909 
5.3969 3.0426 -0.180163 -0.231027 
8.8928 11.6018 -0.010973 -0.281194 
2.4401 16.1274 0.00210983 0.103735 
4.9486 20.6704 -0.150998 0.0847322 
4.285 13.8118 0.00616465 0.0398162 
1.8036 12.1082 0.01475 0.216624 
8.2196 12.5564 0.0263984 -0.120077 
13.9053 11.9275 0.0465202 0.114939 
8.5028 19.3766 0.00771472 0.0764478 
11.927 8.4358 0.0455846 0.40772 
1.808 9.5679 0.366177 0.0883856 
10.7001 13.2512 0.0488491 0.0506924 
4.7257 18.7913 0.211187 -0.321422 
1.3653 10.4784 0.203443 0.0221486 
3.1581 6.0892 -0.266437 0.0838919 
4.6829 7.2778 -0.284483 0.126982 
12.4041 1.8549 -0.214047 0.0676443 
6.5474 4.8688 0.0770128 0.307436 
9.8702 8.4539 -0.00151629 -0.0584717 
8.4849 1.8902 0.169862 0.15457 
4.1069 19.847 -0.120548 -0.119578 
13.2724 13.2935 -0.38111 -0.171063 
8.0985 14.3288 -0.0574512 0.0585983 
7.7271 13.0669 -0.0566867 0.000837248 
9.4704 8.6267 0.0270048 -0.16747 
2.9312 20.9944 -0.13151 0.0123059 
4.3635 10.8404 0.125135 0.148549 
12.9312 9.9155 0.15231 -0.0587918 
3.4651 12.4249 -0.00790679 0.10038 
6.3638 17.7452 -0.000178244 -0.277834 
4.4129 3.8191 -0.141286 0.185988 
3.5338 2.2469 0.0428467 -0.13613 
9.145 8.5372 -0.203168 -0.151025 
10.166 10.6494 -0.032135 0.0786801 
4.0222 11.2908 -0.0260222 -0.217785 
2.8907 18.8386 0.15321 -0.0239452 
1.4613 19.9168 -0.0671678 -0.034536 
12.0073 7.6343 -0.0173814 0.0840571 
10.4338 7.6518 0.0530222 -0.101373 
4.9082 16.269 0.00750949 0.0440323 
8.5469 21.3559 -0.237861 -0.232184 
4.0166 0.8143 -0.0121311 0.136431 
13.3557 2.6391 0.269701 0.0138716 
10.028 13.5183 -0.0350464 -0.0510517 
3.4391 9.3269 -0.0811462 0.0617434 
1.5474 8.8142 -0.337304 -0.190893 
5.7501 13.0139 0.228297 -0.0120884 
5.0517 13.7459 -0.100077 0.0632189 
2.8427 17.2999 0.0340905 0.0358253 
2.1708 7.2207 -6.88487e-06 0.254758 
2.7366 9.2517 0.0494797 -0.0614705 
13.0413 2.117 -0.120824 -0.182413 
4.5479 17.833 0.150441 -0.154616 
6.5643 9.7213 0.156676 -0.0213483 
12.0973 9.7194 0.122384 -0.114247 
11.4855 11.8439 -0.0186518 -0.213115 
2.4024 7.5547 0.131083 -0.0931437 
0.7419 0.9691 0.0308024 0.140117 
6.4044 11.9056 0.205982 0.217267 
5.7621 16.4843 0.118141 0.133971 
3.2589 21.1687 0.0403243 0.118061 
4.8246 12.0842 -0.13007 0.0602173 
7.3031 4.2863 -0.066768 -0.181803 
1.8042 6.172 0.154401 -0.0766841 
8.7714 6.9447 0.0392093 -0.0415972 
7.5284 9.77 0.00765955 0.00974331 
7.2872 8.0474 0.0800891 -0.114509 
2.873 20.3942 0.0488999 -0.145166 
3.1046 8.6665 -0.198936 -0.00445261 
6.231 9.2498 -0.267192 -0.0476724 
13.9964 20.4337 0.0519999 0.0180058 
4.013 19.4247 0.0492532 -0.031753 
5.7405 19.8695 -0.0691575 -0.118588 
6.1486 14.2137 -0.0631152 -0.131309 
5.1959 19.3826 -0.0960169 0.123622 
6.71 7.3735 -0.288563 0.143055 
8.7793 13.3779 -0.0497635 -0.113355 
5.3858 3.7925 0.0342253 0.0371082 
5.7127 20.6132 0.0631871 -0.160448 
5.3098 2.4042 0.0279784 -0.0710189 
7.3246 9.083 -0.0424662 -0.146655 
4.7871 19.7471 -0.211499 -0.216387 
13.5219 12.8915 -0.0331342 0.130947 
7.456 16.7243 0.0795351 0.261646 
1.9064 5.2276 0.264185 0.349684 
1.7142 5.0041 -0.205324 0.0544744 
7.0681 9.5284 -0.12664 0.310852 
1.1267 10.951 -0.0820276 -0.0627472 
6.7748 17.9308 0.15316 0.143734 
13.7303 10.9061 0.0747413 -0.011156 
5.1637 4.5565 -0.124142 -0.0585183 
12.2742 6.0333 0.0693111 0.0670559 
12.9157 17.5281 -0.167868 -0.135562 
6.2011 11.1157 -0.0531438 0.0292155 
2.5466 21.7522 0.123846 -0.0340898 
8.9909 10.211 0.0173344 0.15516 
5.3155 10.5888 0.0138311 0.151078 
5.6832 5.1239 0.335413 -0.176163 
3.6354 10.1036 -0.116874 -0.050924 
5.3656 9.704 0.168583 -0.0465722 
6.6046 1.958 -0.013692 0.0936083 
9.5499 21.0807 -0.0801281 -0.18093 
5.2214 19.6767 0.0169349 -0.0844742 
2.9341 2.9401 0.0896116 0.0280191 
1.1752 13.9313 -0.0691604 -0.159244 
8.5471 15.3721 -0.147868 0.209027 
13.7117 13.8058 0.0497683 0.128695 
13.2501 20.0356 -0.107859 -0.140028 
0.6747 4.4134 -0.0298173 0.0431799 
9.8997 10.3406 -0.18044 0.068434 
2.4581 20.8628 -0.052165 -0.0787815 
10.7753 16.7297 -0.150506 -0.176597 
8.1139 15.608 -0.143752 -0.0229804 
8.7351 6.6125 0.0713776 0.322575 
7.2568 10.1906 0.0322562 -0.00224491 
8.663 2.0835 0.087985 -0.182213 
10.2143 17.0523 0.0582738 0.157271 
11.5425 1.7363 -0.0921494 -0.0305812 
4.1494 2.0141 0.019542 0.198466 
8.9545 9.2512 0.0884174 -0.108719 
6.0625 13.1109 -0.273876 0.130248 
7.0839 6.0543 0.0559666 -0.0449339 
4.7073 1.6012 -0.256396 -0.266813 
8.9354 20.4466 -0.109814 -0.147708 
4.0117 1.3124 0.0735596 -0.117299 
9.417 21.4562 0.131276 0.00826177 
2.2914 21.6679 0.0679514 0.150011 
11.6732 21.6818 -0.135315 -0.138213 
1.6169 8.4672 -0.0799808 0.128518 
10.2139 10.3612 0.0495661 0.0265794 
8.0245 17.1154 0.102752 0.0825085 
5.2294 7.1813 0.0784729 0.115545 
1.6947 3.0155 -0.0248966 -0.00780836 
7.7066 2.4208 0.137888 -0.0392458 
8.4238 3.7464 0.272369 0.112556 
1.4371 19.53 -0.140897 0.0946345 
1.8528 15.7276 0.166676 -0.00259764 
9.1231 17.1054 -0.0492718 0.149766 
4.3809 16.08 -0.0264268 0.0899014 
4.4744 16.7731 -0.115441 -0.233337 
13.7663 21.5995 0.0277181 0.0566017 
8.6793 14.2552 -0.0471549 0.153185 
1.6821 14.0071 -0.224219 -0.115438 
4.4195 3.368 -0.100381 0.0349613 
9.2105 15.7284 0.0144663 -0.00464267 
2.3646 8.6748 -0.030838 -0.0188869 
12.1895 16.4728 -0.223771 0.157049 
7.1586 5.2355 -0.245532 0.103424 
8.1542 6.4479 -0.314468 -0.154597 
0.8012 17.0762 0.117327 0.137132 
4.5145 19.9792 -0.144004 0.0988301 
1.6983 4.4236 -0.14217 0.105092 
9.5131 9.1778 -0.142269 -0.136177 
7.35 17.8703 -0.0191706 0.258232 
0.7441 14.0165 0.0351263 -0.0653273 
9.1885 3.7029 -0.192022 0.0127986 
4.765 9.4665 -0.178769 -0.065444 
9.0678 19.1998 0.213392 -0.0943141 
4.6513 5.5908 0.170547 0.288883 
3.4326 15.7054 0.131739 -0.0158958 
1.5175 14.2564 -0.024349 -0.0161063 
8.2993 15.0963 -0.133485 -0.0789482 
5.9075 7.9044 -0.25055 -0.206228 
6.4097 6.3363 0.199538 0.00682383 
13.9132 21.4599 -0.017607 -0.10447 
4.7929 4.7168 0.221031 0.0651668 
2.298 3.1044 0.0407809 0.128889 
4.4148 11.2031 -0.26426 -0.0613889 
7.2478 14.3016 -0.0423895 -0.151279 
9.7377 1.7542 0.149244 -0.0562775 
8.1711 19.5067 -0.0118435 0.112076 
5.5823 18.961 0.380206 -0.00490699 
13.7459 3.2559 0.128421 0.0197252 
1.4888 5.4295 0.0598935 0.0399014 
4.4663 17.3861 0.184022 0.16752 
9.6265 12.9469 -0.129823 -0.0615128 
9.748 20.0495 0.0681738 -0.0943436 
7.7469 1.9484 0.00132531 0.0877391 
0.7217 9.2223 -0.10238 0.176175 
0.8269 1.9111 0.0619471 -0.029578 
7.4229 10.4048 0.0554216 0.0513135 
10.0431 7.6055 -0.0374681 -0.0233514 
9.5953 9.702 -0.143164 -0.230504 
3.1884 13.71 -0.0870362 0.260748 
11.0149 9.0271 -0.0144118 -0.0349319 
12.6884 11.9778 -0.0281044 -0.0236569 
8.117 21.6554 -0.0644624 0.0600411 
9.1225 21.7675 0.0360997 0.243059 
7.0107 2.1751 -0.12162 0.00501737 
11.6697 7.0427 0.0069473 0.123972 
13.8633 14.9753 -0.0748193 0.0391 
1.3804 3.4615 0.0936302 -0.129616 
12.7646 4.9698 -0.0348024 -0.0604965 
7.8829 4.1906 -0.000777935 0.0580451 
10.0026 9.5167 -0.0423808 0.0209144 
5.1964 3.098 0.0643094 -0.00622619 
3.0904 10.9759 0.387507 -0.185958 
11.8969 3.6718 0.116974 0.147825 
12.6268 12.866 0.0733258 0.133611 
7.6006 5.5412 0.175766 0.0449283 
13.6828 5.8324 -0.13003 -0.173897 
6.4724 4.2092 0.251158 0.127403 
4.7001 0.6243 0.0403695 -0.0313863 
3.8583 7.3574 0.132515 0.0582142 
11.1877 20.8401 0.0621954 -0.178351 
4.4329 14.8175 -0.0204411 -0.0325788 
0.6783 13.1983 0.104931 0.244031 
0.7292 4.9307 -0.118448 -0.0363315 
12.7658 20.1569 0.0344223 0.102418 
11.4921 10.4458 -0.152696 -0.0556227 
12.3643 11.2642 0.0363053 0.0355582 
6.3412 18.5919 -0.0652062 0.0138104 
8.2861 3.9379 -0.0466806 0.0340519 
10.3957 10.6243 0.18493 0.0189622 
4.2703 4.7222 -0.109758 -0.118495 
9.4037 2.084 -0.0856551 0.0828149 
1.2366 5.9461 0.0499641 0.0582384 
6.3102 12.5846 -0.0197447 -0.150123 
2.0214 2.5505 -0.0894563 -0.17673 
13.7137 10.6497 0.0451474 0.376206 
11.468 6.0106 0.0826637 0.0444111 
1.228 2.5774 -0.267034 0.0877067 
9.5466 20.7475 0.0423175 -0.142201 
9.2256 9.3094 0.130216 0.0765287 
3.1766 20.5522 0.139121 0.068902 
5.069 20.9701 -0.10059 0.0255418 
1.0282 17.658 0.079646 -0.303644 
7.5398 20.8615 0.189485 0.0468169 
13.7927 2.9088 -0.226039 -0.178704 
7.8815 3.7179 0.105267 0.0154755 
12.1479 10.7288 -0.170387 -0.120926 
3.2353 0.974 0.0665519 0.103475 
6.9214 12.909 0.0163152 -0.023566 
5.449 5.2917 -0.0982275 -0.040954 
8.3054 12.0516 -0.040417 0.217662 
5.8171 20.3392 0.0530371 0.184723 
2.5073 10.4275 0.176065 -0.0140944 
1.2193 5.034 0.0683578 0.0562636 
10.308 1.9604 -0.146376 0.0894428 
2.5022 14.7629 0.0382916 -0.0244338 
5.3176 1.5925 -0.14668 0.0161743 
10.4254 8.5022 0.332751 0.117519 
12.5201 2.7109 -0.348527 0.0684883 
6.4734 10.3233 0.192045 0.0466604 
1.805 1.5397 -0.179843 0.187152 
2.7149 12.069 -0.0286357 0.119001 
13.6817 18.0731 -0.0898516 -0.0583886 
2.2388 5.8906 -0.0966019 -0.0196444 
10.844 11.9665 -0.143299 0.0833594 
13.6111 7.1755 0.00292282 0.0898278 
3.5158 19.3362 0.00880804 0.0536167 
6.9039 3.2673 -0.135718 -0.366775 
1.6104 10.6858 0.145484 0.0182822 
6.4256 15.0437 0.125465 -0.0403724 
9.2826 11.3384 0.265978 0.00752764 
5.6637 18.2926 0.0935025 -0.000360879 
2.9419 7.6784 0.316258 0.233421 
10.9216 4.1586 -0.114577 -0.0603289 
0.5872 1.6856 0.145601 0.113873 
2.8164 4.0105 0.35739 -0.362352 
8.2971 21.0625 -0.0590002 -0.0388116 
8.799 5.2372 -0.372941 -0.0682157 
6.6956 9.9126 0.0516903 0.0499125 
0.9784 9.4646 0.0101212 -0.112365 
8.0023 2.449 0.000774458 0.0327139 
13.5245 2.2118 -0.270263 -0.0616154 
2.2426 4.3324 -0.259206 -0.00919758 
0.6107 2.6083 -0.0423906 -0.214639 
4.9028 17.4418 -0.235451 -0.16187 
7.3284 2.253 0.0711651 -0.00475055 
7.6861 2.1482 0.0116048 -0.0544569 
6.7924 14.2645 0.0263116 -0.0805951 
2.8956 14.7002 0.262426 0.0445481 
1.6688 7.2659 -0.101906 -0.0256322 
0.6582 19.0357 0.0442342 -0.388686 
3.1162 5.4784 0.0528545 0.0718546 
4.1429 13.5719 -0.0752844 -0.0583973 
0.8269 3.137 0.103094 0.0408636 
10.8511 2.4192 0.123461 -0.00639109 
1.9116 17.7182 0.0758445 0.122016 
1.8907 19.7787 -0.0896697 -0.119475 
3.3108 10.7879 -0.0860274 0.289613 
3.7736 19.1388 -0.284046 -0.228887 
6.0264 7.3371 -0.0482038 0.0885872 
5.1657 17.9225 0.287343 -0.0483764 
8.8823 11.9867 0.10461 -0.305975 
4.5058 4.7934 -0.111998 0.0911451 
0.934 19.8915 0.145747 -0.0101532 
8.4669 5.077 0.138174 -0.198997 
5.3912 16.6491 0.216607 -0.0415586 
13.5777 1.4265 -0.125132 0.158087 
6.6093 16.59 -0.211376 -0.159 
11.5202 2.552 -0.065049 -0.190229 
7.5428 6.1092 -0.109648 -0.0299787 
9.4517 14.1685 0.336641 0.244436 
7.3928 12.8936 0.150905 -0.135145 
5.7913 3.7247 -0.0271104 -0.0137339 
6.4143 19.4772 0.0572986 0.0584327 
1.3516 12.535 0.171507 -0.188662 
7.2425 7.4875 0.167113 0.18195 
0.9153 8.8459 -0.280471 -0.163779 
6.7851 9.504 0.069274 0.0788551 
13.6087 1.7939 0.0916622 -0.0512246 
2.9176 13.5914 0.117658 0.0190209 
3.4013 12.9079 -0.0598533 0.12754 
6.6927 13.4252 -0.201688 -0.14938 
11.9896 1.6547 0.0418593 -0.078688 
11.5056 8.1049 0.0825641 -0.0392268 
8.6058 0.9867 0.123327 0.281312 
6.0526 20.6781 0.0725278 -0.0343039 
9.3203 18.0488 -0.0422468 0.371054 
5.3014 11.7171 -0.16338 0.25441 
2.1591 17.284 0.238826 0.0697454 
12.6098 15.1528 -0.24033 0.0831403 
6.6365 20.245 0.0788283 -0.0933034 
10.659 8.7284 -0.0188469 0.0715228 
5.6858 19.4382 -0.182583 -0.0514204 
4.7918 2.0452 0.228096 -0.0061334 
6.5168 19.6504 -0.0570215 0.0864487 
7.6153 8.9515 0.154378 0.0743439 
11.8986 10.1696 0.132525 -0.0731695 
3.4601 11.3764 0.00167849 -0.0497604 
0.9141 12.3635 -0.227036 -0.264433 
12.5926 13.1349 -0.0455561 0.0890875 
0.5979 1.4852 -0.300337 0.0936787 
9.2491 3.9679 0.104254 -0.0925961 
4.3015 12.6762 -0.130572 -0.217593 
11.0809 9.3364 -0.122274 0.0554038 
10.315 9.9848 -0.174177 -0.0300229 
11.705 7.4971 -0.187365 -0.360628 
12.5564 16.1367 0.0205485 -0.263846 
10.6467 5.082 0.237218 -0.133325 
5.2255 7.694 0.0048288 0.00491086 
5.9584 8.7175 -0.207514 -0.103212 
12.8201 16.2582 0.0589973 -0.00480666 
13.4217 1.9804 -0.00569797 0.0438043 
9.4853 5.2018 -0.0504552 -0.0470665 
0.8663 2.7559 -0.216022 0.0178769 
13.1046 8.7299 0.0643872 -0.249204 
6.4951 3.4951 -0.0747995 0.0783061 
2.9113 6.4354 -0.181788 0.0354608 
6.1077 13.9729 -0.231719 -0.1621 
7.4113 11.7283 0.0232806 -0.295042 
3.8811 2.6883 -0.289354 0.0831263 
0.6509 16.5086 0.184698 0.076627 
6.8192 14.5712 -0.0432058 -0.0178972 
5.2283 13.3162 0.135416 -0.0899644 
8.078 12.8606 0.221802 0.00349842 
8.2091 17.0005 -0.0494937 -0.188857 
3.7769 11.3826 -0.135601 0.0888271 
8.0588 16.0961 -0.146549 -0.114746 
12.4791 13.4255 0.0366695 0.124281 
12.5267 15.7373 0.263566 -0.234407 
3.9392 8.9353 0.083756 -0.183363 
6.2202 8.9842 -0.154814 -0.0564894 
11.3047 18.0376 0.0343576 0.123967 
9.8032 3.7324 -0.137645 -0.112041 
2.5887 13.3688 -0.0416246 0.290126 
11.0434 7.1411 -0.0416061 -0.145016 
0.974 21.27 0.121817 0.0875376 
12.7399 7.1403 -0.0213917 0.0105254 
9.086 17.912 0.0349579 -0.166564 
13.1463 10.614 0.0138784 -0.0992747 
7.3382 18.7384 0.011378 -0.032344 
3.5316 13.2878 0.0205185 -0.141513 
12.1532 2.8684 0.19326 0.103564 
6.0303 5.8401 0.0451246 -0.0550847 
10.5548 19.0282 0.130873 -0.183778 
8.4736 2.7789 0.0169257 0.0622327 
10.816 15.5984 0.0131017 -0.148144 
9.5321 10.51 -0.0190281 -0.0726713 
0.527 10.2734 0.25656 0.0279651 
6.5773 10.9342 -0.0287919 0.0703764 
10.6562 11.8717 -0.300347 -0.255973 
1.823 19.4714 0.0579752 0.0283091 
2.6659 9.7878 0.105573 0.161861 
1.5609 7.8989 -0.118489 -0.0360326 
13.7759 11.4605 -0.0567192 -0.0075776 
9.3831 7.4964 -0.224745 -0.0262794 
12.9836 19.0812 0.140797 0.175663 
6.0003 19.9429 -0.312674 -0.15447 
2.5957 15.3133 0.00551533 0.00588708 
4.0739 7.4061 0.14513 -0.103004 
3.7307 8.0354 0.21838 -0.0669637 
10.5304 7.2697 0.18534 0.00088254 
10.0814 3.6436 0.254706 0.093977 
17.0044 20.239 -0.0591973 0.156832 
20.5835 10.7951 -0.0358098 -0.0398656 
17.1998 14.0254 0.162863 0.0183488 
24.3432 15.0487 -0.0545143 0.0174951 
21.1809 3.0926 0.0743921 0.00314374 
16.3218 19.775 0.374441 -0.180442 
25.0753 20.5501 0.171991 -0.0177719 
19.5278 18.6206 0.0112505 -0.0392035 
26.1753 11.2027 0.017477 0.182398 
23.7665 16.343 -0.205527 0.32981 
14.7698 13.2099 0.0781539 -0.127819 
14.2961 15.5171 0.132064 0.182966 
18.1096 20.3386 -0.00258509 0.129377 
20.9303 14.2637 -0.0682415 0.0327673 
14.5989 0.5697 0.148813 0.196617 
16.3764 9.7546 -0.104813 0.148554 
25.0963 8.0495 -0.199689 0.10599 
22.5042 6.9224 0.074237 -0.124982 
16.2688 6.0888 0.0596888 0.00465655 
14.7695 2.3681 -0.208578 -0.183415 
14.0455 18.7671 -0.0798512 -0.13665 
15.4975 15.3674 0.118105 0.0234316 
23.193 13.2055 0.00159841 -0.0335876 
16.5931 17.4812 -0.242203 0.097446 
26.2424 18.7423 0.073809 -0.06322 
25.4261 4.6157 0.244879 -0.0751352 
19.9867 12.8919 0.0496808 -0.00373086 
24.3633 9.6131 -0.077628 0.2318 
21.5034 20.581 -0.110113 -0.276818 
26.0169 1.3042 0.146318 0.065096 
14.3621 9.6885 0.162772 -0.275088 
19.8774 16.3267 -0.0399449 -0.00490429 
16.7241 1.0227 -0.0150849 0.321709 
21.3846 6.586 0.119654 -0.0887813 
25.8949 12.613 0.201731 -0.24104 
21.633 20.0761 0.241037 -0.133939 
23.3541 19.1774 -0.123673 0.0441108 
21.1955 5.1023 -0.162147 0.0643701 
22.7565 11.2751 -0.022025 0.0958141 
19.1832 2.943 -0.00738498 -0.0112336 
26.8529 13.3481 0.0845129 0.184989 
21.1771 10.9739 -0.025253 0.0121034 
24.8447 17.7352 0.277621 -0.00559393 
22.2374 7.9346 -0.119603 -0.240649 
19.9924 13.8646 -0.0337388 0.0059336 
24.9297 20.8087 -0.00767438 0.0313705 
16.1072 16.658 -0.0417539 0.403591 
25.0628 14.9514 0.202451 -0.101615 
17.6553 10.7111 -0.112175 -0.243222 
20.0813 2.7574 -0.0815403 -0.13236 
15.3958 4.1064 -0.0608704 -0.114485 
19.7073 10.289 -0.171018 -0.0827387 
22.2577 6.6787 -0.00829654 -0.00724609 
23.7615 12.3027 0.0734682 -0.137067 
22.4956 15.3369 0.0720428 0.443135 
15.7634 7.1889 0.113404 -0.0272918 
17.8187 17.8559 -0.0363687 -0.0192732 
16.459 21.4906 -0.0445007 -0.053132 
25.5063 1.2624 0.11132 0.168169 
25.6699 11.1141 0.0384128 0.00424257 
21.0322 1.993 0.00218479 -0.170315 
21.2271 8.5187 -0.093054 0.0632812 
16.5598 5.0461 -0.0351785 -0.182972 
16.8429 2.5137 0.000990591 0.113941 
16.3575 4.8426 -0.0848893 -0.0159967 
18.9558 21.7313 0.158438 0.127679 
26.8274 3.3563 0.232255 0.0665218 
22.7626 8.638 0.0953778 -0.120753 
14.5336 14.0454 -0.19967 -0.0782569 
23.167 9.7201 0.336898 -0.123744 
15.2775 16.5349 0.0283913 -0.15657 
19.0998 20.044 0.283065 -0.0802925 
21.2586 14.014 0.0909774 0.0515793 
26.7817 11.0512 -0.0501695 -0.208575 
15.9378 5.2984 -0.0655221 -0.113298 
24.1862 20.128 0.0405971 0.0536701 
15.628 20.0187 0.125721 -0.204214 
26.4756 11.9445 -0.0976166 -0.0237996 
25.3757 15.8769 -0.0947815 0.078091 
26.9038 1.4066 -0.164717 -0.0301963 
15.8178 1.7538 -0.0444642 -0.0562565 
16.9103 10.2891 -0.0102639 -0.0806734 
27.7234 9.4262 -0.212681 -0.00307068 
23.6231 9.3712 0.0323881 -0.0789393 
23.1148 14.8226 0.0165045 0.155876 
21.8953 1.2358 0.0674697 0.171823 
17.6815 17.5645 0.194565 -0.184646 
19.9662 11.7921 -0.0958078 0.132174 
22.4224 18.9943 0.0482941 0.104899 
18.6071 6.4087 -0.0128211 0.0599512 
20.2034 21.488 -0.0508137 -0.0899205 
24.57 1.6682 -0.13107 0.0439034 
14.0039 2.6764 0.0733358 0.0623413 
18.989 18.3785 -0.291149 0.0774097 
22.488 16.4832 0.225827 0.00262429 
24.5701 3.282 0.213213 -0.391859 
20.8715 2.3072 0.130223 -0.0661751 
16.2201 9.5787 0.0326395 0.230452 
19.162 17.7654 -0.108105 -0.183659 
18.4529 20.6047 0.155929 -0.0038483 
14.9003 2.8187 0.110555 -0.00198419 
21.8385 14.3636 0.2302 -0.0877928 
27.0427 3.7393 -0.147504 0.10878 
26.1461 19.4145 -0.252936 0.129666 
19.9266 6.5943 0.121984 -0.114057 
26.2532 9.657 0.147396 -0.00422756 
24.6287 6.7699 0.0210561 -0.139338 
27.3825 10.4715 0.131176 0.0668154 
19.6823 4.6202 -0.029741 0.0364397 
22.2171 10.9575 -0.129297 -0.0455269 
20.9519 7.0815 -0.275106 0.264908 
20.3626 13.0952 -0.141537 -0.168586 
25.044 0.7749 -0.255078 -0.0422285 
20.0055 0.5768 0.0742379 0.051063 
22.0265 6.7292 0.171619 -0.0247415 
24.272 7.5999 0.068627 0.138974 
19.156 12.3991 0.0290547 -0.00166206 
19.9569 8.5631 0.40271 -0.0717099 
25.5359 6.4582 0.114272 0.0775546 
25.6286 14.0414 -0.0407233 -0.0999746 
17.9713 6.3817 -0.134203 -0.119719 
15.5395 6.0745 0.0902654 0.164294 
27.6727 19.7889 -0.114882 -0.266277 
16.4829 14.3153 -0.135966 -0.0624014 
21.1062 12.4148 -0.282959 -0.090006 
20.7458 8.4561 0.248314 0.0858529 
20.6045 21.6134 -0.295923 0.0580358 
22.4264 11.5387 0.0203256 0.169156 
19.272 8.741 0.0782405 0.219822 
26.7833 17.5869 0.151565 -0.0318035 
16.8046 7.0073 -0.204901 -0.0583861 
16.2349 5.2995 0.262933 -0.109599 
22.0748 15.1819 -0.0283028 -0.0213318 
15.3308 1.7133 0.0722769 0.100271 
21.0474 19.9681 0.0015434 0.129165 
25.0083 7.3057 0.109902 -0.226407 
26.2416 1.661 0.0699478 -0.111575 
17.2704 18.5271 0.314909 -0.0772502 
19.8524 10.0979 -0.170635 0.113895 
25.6021 7.3827 -0.0430676 0.0777423 
15.0365 11.7659 -0.109244 0.0644253 
17.488 18.2553 0.0229362 0.186684 
26.9577 19.0998 -0.214335 0.0863893 
16.8858 12.6359 0.173228 -0.0608904 
18.6337 16.6189 0.181642 0.037481 
15.2029 17.1416 -0.00627139 -0.217096 
27.3697 19.8101 0.116558 0.304199 
22.1842 15.7233 -0.154174 0.0278311 
16.1123 2.6562 0.0196441 0.273366 
27.4687 10.1125 -0.238092 0.220182 
18.723 21.2709 0.0111124 -0.208315 
24.6949 13.9263 -0.0894024 -0.15993 
21.1587 20.47 -0.166331 0.19912 
19.2814 4.3023 -0.114478 0.113719 
14.8334 15.5407 -0.0164432 -0.258908 
21.9938 11.9532 -0.154949 -0.0154749 
17.7605 20.3103 -0.0992638 0.0796323 
15.8602 3.3176 -0.0476737 0.0949741 
25.5922 5.9353 -0.131758 -0.0412749 
21.0568 19.4092 0.00153909 -0.202892 
19.5219 21.0651 0.050074 0.094259 
25.5527 3.1331 0.100029 -0.0899309 
20.2609 14.2144 0.170867 -0.285088 
24.8588 4.2204 -0.0558658 -0.181662 
18.0004 5.2824 -0.159329 0.0755822 
15.1401 10.0483 0.0407689 0.0654873 
26.4441 7.5231 -0.241324 -0.0246993 
23.5319 7.4043 -0.00594368 0.133871 
15.1832 4.2022 0.278547 0.283627 
24.5657 8.75 -0.040014 0.164364 
27.4028 20.6683 0.102228 -0.0290868 
18.1523 2.7934 0.158888 -0.189634 
14.6063 19.5419 0.104357 0.105628 
27.0468 3.2723 -0.149336 0.177543 
16.7862 0.8044 -0.00717976 0.15532 
18.9778 8.6495 -0.113237 -0.0420621 
14.7174 2.5919 0.00869832 0.0288404 
15.488 17.6551 0.0195245 -0.028233 
19.0344 19.2669 0.0512583 0.19399 
14.7762 7.6035 -0.0935862 -0.0333891 
23.4706 4.5143 0.00452644 0.0940272 
15.0963 13.243 0.00906532 -0.0179251 
22.8694 10.5649 -0.19556 -0.0230534 
16.62 14.8524 -0.0514757 -0.00418191 
16.0191 2.9928 -0.0393373 0.126123 
27.5611 0.6422 0.144105 0.144738 
25.1372 12.8568 0.182962 -0.0537429 
20.0106 2.0831 -0.00325987 0.105576 
19.7807 3.8222 0.363125 -0.355991 
21.6061 10.9126 0.106098 -0.0283459 
24.5773 2.8139 0.0340191 0.132645 
27.2136 9.0305 -0.0367938 0.136256 
26.2789 19.9762 0.0479734 -0.151748 
27.3856 13.6259 -0.159153 0.122538 
18.462 9.5789 0.0514128 0.1008 
26.9632 16.9932 0.0505475 0.065686 
27.6116 18.4326 -0.082233 -0.171843 